 Gaussian 09, Revision A.01,
 Gaussian 09:  EM64L-G09RevA.01  8-May-2009

 ----------------
 #opt b3lyp/6-31g
 ----------------

 -------------------
 Title Card Required
 -------------------
 Symbolic Z-matrix:
 Charge =  0 Multiplicity = 1

 SCF Done:  E(RB3LYP) =  -1138.21979675     A.U. after   15 cycles
 SCF Done:  E(RB3LYP) =  -1138.21639275     A.U. after   16 cycles
 SCF Done:  E(RB3LYP) =  -1138.22042149     A.U. after   16 cycles
 SCF Done:  E(RB3LYP) =  -1138.22482728     A.U. after   14 cycles
 SCF Done:  E(RB3LYP) =  -1138.22399876     A.U. after   16 cycles
 SCF Done:  E(RB3LYP) =  -1138.22597457     A.U. after   15 cycles
 SCF Done:  E(RB3LYP) =  -1138.22778601     A.U. after   16 cycles
 SCF Done:  E(RB3LYP) =  -1138.22752881     A.U. after   13 cycles
 SCF Done:  E(RB3LYP) =  -1138.22828575     A.U. after   13 cycles
 SCF Done:  E(RB3LYP) =  -1138.22900379     A.U. after   14 cycles
 SCF Done:  E(RB3LYP) =  -1138.24024204     A.U. after    8 cycles
 SCF Done:  E(RB3LYP) =  -1138.24024218     A.U. after    8 cycles
 SCF Done:  E(RB3LYP) =  -1138.24024247     A.U. after    8 cycles
 SCF Done:  E(RB3LYP) =  -1138.24024282     A.U. after    8 cycles
 SCF Done:  E(RB3LYP) =  -1138.24024327     A.U. after    8 cycles
 SCF Done:  E(RB3LYP) =  -1138.24024373     A.U. after    8 cycles
 SCF Done:  E(RB3LYP) =  -1138.24024419     A.U. after    8 cycles
 SCF Done:  E(RB3LYP) =  -1138.24024470     A.U. after    8 cycles
 SCF Done:  E(RB3LYP) =  -1138.24024493     A.U. after    8 cycles
 SCF Done:  E(RB3LYP) =  -1138.24024506     A.U. after    8 cycles
 Optimization completed.
    -- Stationary point found.

                         Standard orientation:
 ---------------------------------------------------------------------
 Center     Atomic      Atomic             Coordinates (Angstroms)
 Number     Number       Type             X           Y           Z
 ---------------------------------------------------------------------
      1          6           0        1.673154   -1.656740   -1.043551
      2          8           0        0.926893   -1.452710   -0.035833
      3          8           0        2.977880   -1.563191   -1.036981
      4          1           0        1.236987   -1.941190   -1.999814
      5          1           0        3.411903   -1.254065   -0.147179
      6          6           0        3.263667   -0.507332    2.210578
      7          8           0        3.962376   -0.828515    1.225585
      8          8           0        1.938685   -0.590313    2.289272
      9          1           0        3.709380   -0.131149    3.130196
     10          1           0        1.489869   -0.897935    1.435168
     11          6           0       -1.882133   -2.022941   -1.736579
     12          8           0       -1.000469   -2.255501   -2.561882
     13          8           0       -1.649847   -1.579550   -0.467490
     14          1           0       -2.951358   -2.143249   -1.921906
     15          1           0       -0.656307   -1.460556   -0.247674
     16          6           0       -4.192263   -0.220808    1.572401
     17          8           0       -4.019767    0.866717    0.997411
     18          8           0       -3.522129   -1.352991    1.359296
     19          1           0       -4.955797   -0.352802    2.340103
     20          1           0       -2.788850   -1.337468    0.660256
     21          6           0       -1.236350    2.337614   -0.449900
     22          8           0       -0.637021    1.370866    0.077704
     23          8           0       -2.552341    2.503410   -0.434339
     24          1           0       -0.707634    3.132295   -0.976557
     25          1           0       -3.074841    1.807763    0.080989
     26          6           0        2.406060    2.446277   -0.816157
     27          8           0        1.673531    3.331198   -1.273802
     28          8           0        1.981347    1.367176   -0.120050
     29          1           0        3.492813    2.437265   -0.927651
     30          1           0        0.967920    1.351908    0.002198
 ---------------------------------------------------------------------

 The electronic state is 1-A.
 Alpha  occ. eigenvalues --  -19.22458 -19.22062 -19.21381 -19.20811 -19.20760
 Alpha  occ. eigenvalues --  -19.19849 -19.18926 -19.18578 -19.18406 -19.18157
 Alpha  occ. eigenvalues --  -19.17415 -19.15237 -10.37369 -10.36425 -10.36321
 Alpha  occ. eigenvalues --  -10.35993 -10.34470 -10.32939  -1.15800  -1.14363
 Alpha  occ. eigenvalues --   -1.14053  -1.13513  -1.12788  -1.10777  -1.07213
 Alpha  occ. eigenvalues --   -1.06086  -1.05427  -1.05162  -1.04164  -1.02306
 Alpha  occ. eigenvalues --   -0.71257  -0.69767  -0.69308  -0.67892  -0.67564
 Alpha  occ. eigenvalues --   -0.66044  -0.59248  -0.56829  -0.56118  -0.54960
 Alpha  occ. eigenvalues --   -0.54325  -0.53255  -0.53063  -0.51213  -0.50872
 Alpha  occ. eigenvalues --   -0.50183  -0.49407  -0.48421  -0.47220  -0.47091
 Alpha  occ. eigenvalues --   -0.46704  -0.46580  -0.45608  -0.43848  -0.43776
 Alpha  occ. eigenvalues --   -0.43376  -0.39801  -0.38716  -0.38108  -0.37005
 Alpha  occ. eigenvalues --   -0.36173  -0.35288  -0.34489  -0.34447  -0.34265
 Alpha  occ. eigenvalues --   -0.33253  -0.32213  -0.31765  -0.31572  -0.31327
 Alpha  occ. eigenvalues --   -0.30628  -0.28382
 Alpha virt. eigenvalues --   -0.05595  -0.04306  -0.04083  -0.03716  -0.02767
 Alpha virt. eigenvalues --   -0.01112   0.08295   0.09539   0.10207   0.11482
 Alpha virt. eigenvalues --    0.12419   0.13205   0.13833   0.14242   0.15451

 Mulliken atomic charges:
              1
     1  C    0.431634
     2  O   -0.562775
     3  O   -0.514503
     4  H    0.226426
     5  H    0.445074
     6  C    0.413218
     7  O   -0.474737
     8  O   -0.530300
     9  H    0.185381
    10  H    0.439516
    11  C    0.397742
    12  O   -0.395180
    13  O   -0.634063
    14  H    0.169291
    15  H    0.471594
    16  C    0.392231
    17  O   -0.459665
    18  O   -0.542408
    19  H    0.173638
    20  H    0.449228
    21  C    0.380290
    22  O   -0.499750
    23  O   -0.531593
    24  H    0.207036
    25  H    0.430405
    26  C    0.354753
    27  O   -0.417874
    28  O   -0.594133
    29  H    0.155241
    30  H    0.434285
 Sum of Mulliken atomic charges =   0.00000

 Dipole moment (field-independent basis, Debye):
    X=             -0.9325    Y=             -2.6529    Z=              1.9780  Tot=              3.4380
 Quadrupole moment (field-independent basis, Debye-Ang):
   XX=            -97.3972   YY=           -114.9113   ZZ=           -104.4981
   XY=              7.3392   XZ=              5.0788   YZ=              3.1768

 Normal termination of Gaussian 09 at Mon May 11 22:20:28 2015.
