 Gaussian 09, Revision A.01,
 Gaussian 09:  EM64L-G09RevA.01  8-May-2009

 -----------------
 # opt b3lyp/6-31g
 -----------------

 -------------------
 Title Card Required
 -------------------
 Symbolic Z-matrix:
 Charge =  0 Multiplicity = 1

 SCF Done:  E(RB3LYP) =  -379.365055403     A.U. after   14 cycles
 SCF Done:  E(RB3LYP) =  -379.365532483     A.U. after   15 cycles
 SCF Done:  E(RB3LYP) =  -379.365483162     A.U. after   13 cycles
 SCF Done:  E(RB3LYP) =  -379.365686022     A.U. after   13 cycles
 SCF Done:  E(RB3LYP) =  -379.366211213     A.U. after   12 cycles
 SCF Done:  E(RB3LYP) =  -379.367061314     A.U. after   14 cycles
 SCF Done:  E(RB3LYP) =  -379.367644431     A.U. after   13 cycles
 SCF Done:  E(RB3LYP) =  -379.368253044     A.U. after   13 cycles
 SCF Done:  E(RB3LYP) =  -379.368633981     A.U. after   13 cycles
 SCF Done:  E(RB3LYP) =  -379.368840336     A.U. after   13 cycles
 SCF Done:  E(RB3LYP) =  -379.370980328     A.U. after   12 cycles
 SCF Done:  E(RB3LYP) =  -379.371002238     A.U. after   12 cycles
 SCF Done:  E(RB3LYP) =  -379.371017824     A.U. after   12 cycles
 SCF Done:  E(RB3LYP) =  -379.371022493     A.U. after   14 cycles
 SCF Done:  E(RB3LYP) =  -379.371023635     A.U. after    9 cycles
 SCF Done:  E(RB3LYP) =  -379.371024024     A.U. after   14 cycles
 SCF Done:  E(RB3LYP) =  -379.371024198     A.U. after    8 cycles
 SCF Done:  E(RB3LYP) =  -379.371024505     A.U. after    9 cycles
 SCF Done:  E(RB3LYP) =  -379.371024913     A.U. after    9 cycles
 SCF Done:  E(RB3LYP) =  -379.371025073     A.U. after   14 cycles
 Optimization completed.
    -- Stationary point found.

                         Standard orientation:
 ---------------------------------------------------------------------
 Center     Atomic      Atomic             Coordinates (Angstroms)
 Number     Number       Type             X           Y           Z
 ---------------------------------------------------------------------
      1          6           0       -1.765816   -0.266011    0.000040
      2          8           0       -2.975606   -0.455704   -0.000240
      3          8           0       -1.217135    0.986926    0.000264
      4          1           0       -1.023896   -1.077261    0.000129
      5          1           0       -0.230273    0.975519    0.000850
      6          6           0        2.277890   -0.248526    0.000006
      7          8           0        1.662746   -1.298136    0.000109
      8          8           0        1.608447    0.965729   -0.000253
      9          1           0        3.370209   -0.158384   -0.000016
     10          1           0        2.183899    1.756826   -0.000278
 ---------------------------------------------------------------------

 The electronic state is 1-A.
 Alpha  occ. eigenvalues --  -19.25849 -19.20859 -19.16799 -19.12675 -10.38594
 Alpha  occ. eigenvalues --  -10.30647  -1.16740  -1.09520  -1.08470  -1.01225
 Alpha  occ. eigenvalues --   -0.70256  -0.63780  -0.61791  -0.55620  -0.49750
 Alpha  occ. eigenvalues --   -0.49469  -0.45117  -0.41917  -0.41661  -0.37789
 Alpha  occ. eigenvalues --   -0.35397  -0.33812  -0.29467  -0.25684
 Alpha virt. eigenvalues --   -0.06526   0.00064   0.01101   0.06734   0.14004
 Alpha virt. eigenvalues --    0.15222   0.21186   0.22671   0.28819   0.32312
 Alpha virt. eigenvalues --    0.46575   0.51527   0.53483   0.58376   0.62525

 Mulliken atomic charges:
              1
     1  C    0.333411
     2  O   -0.384070
     3  O   -0.562794
     4  H    0.137851
     5  H    0.417177
     6  C    0.388426
     7  O   -0.336674
     8  O   -0.567656
     9  H    0.163837
    10  H    0.410492
 Sum of Mulliken atomic charges =   0.00000

 Dipole moment (field-independent basis, Debye):
    X=              8.8369    Y=              2.3566    Z=              0.0015  Tot=              9.1457
 Quadrupole moment (field-independent basis, Debye-Ang):
   XX=            -35.7164   YY=            -35.0120   ZZ=            -33.6253
   XY=              7.9983   XZ=             -0.0021   YZ=              0.0007

 Normal termination of Gaussian 09 at Fri May  1 20:34:41 2015.
