 Gaussian 09, Revision A.01,
 Gaussian 09:  EM64L-G09RevA.01  8-May-2009

 ------------------------
 #p b3lyp/genecp pop=full
 ------------------------

 -------------------
 Title Card Required
 -------------------
 Symbolic Z-matrix:
 Charge =  0 Multiplicity = 1

                         Standard orientation:
 ---------------------------------------------------------------------
 Center     Atomic      Atomic             Coordinates (Angstroms)
 Number     Number       Type             X           Y           Z
 ---------------------------------------------------------------------
      1         77           0        0.000000    0.000000    1.120511
      2         77           0        0.000000    0.000000   -1.119647
      3         17           0        1.570000    1.570000   -1.661489
      4         17           0       -1.570000    1.570000   -1.661489
      5         17           0        1.570000   -1.570000   -1.661489
      6         17           0       -1.570000   -1.570000   -1.661489
      7         17           0        0.000000    2.220315    1.660511
      8         17           0       -2.220315    0.000000    1.660511
      9         17           0        2.220315    0.000000    1.660511
     10         17           0        0.000000   -2.220315    1.660511
 ---------------------------------------------------------------------

 SCF Done:  E(RB3LYP) =  -3891.00828081     A.U. after   21 cycles

 The electronic state is 1-A1.
 Alpha  occ. eigenvalues -- -101.57377-101.57377-101.57376-101.57376-101.57371
 Alpha  occ. eigenvalues -- -101.57371-101.57370-101.57370  -9.50465  -9.50465
 Alpha  occ. eigenvalues --   -9.50463  -9.50461  -9.50459  -9.50459  -9.50457
 Alpha  occ. eigenvalues --   -9.50456  -7.26653  -7.26653  -7.26652  -7.26652
 Alpha  occ. eigenvalues --   -7.26648  -7.26648  -7.26647  -7.26647  -7.26055
 Alpha  occ. eigenvalues --   -7.26054  -7.26054  -7.26053  -7.26048  -7.26048
 Alpha  occ. eigenvalues --   -7.26046  -7.26046  -7.25665  -7.25665  -7.25665
 Alpha  occ. eigenvalues --   -7.25663  -7.25659  -7.25659  -7.25659  -7.25658
 Alpha  occ. eigenvalues --   -3.89145  -3.88610  -2.33087  -2.28573  -2.28573
 Alpha  occ. eigenvalues --   -2.28047  -2.27971  -2.27971  -0.87928  -0.87099
 Alpha  occ. eigenvalues --   -0.84931  -0.84931  -0.84930  -0.84926  -0.84533
 Alpha  occ. eigenvalues --   -0.84533  -0.54588  -0.52321  -0.52321  -0.50480
 Alpha  occ. eigenvalues --   -0.50475  -0.50253  -0.48629  -0.48133  -0.48127
 Alpha  occ. eigenvalues --   -0.44722  -0.44722  -0.41203  -0.41203  -0.40364
 Alpha  occ. eigenvalues --   -0.39163  -0.36287  -0.36287  -0.35481  -0.35481
 Alpha  occ. eigenvalues --   -0.34969  -0.34969  -0.34927  -0.34927  -0.33511
 Alpha  occ. eigenvalues --   -0.33511  -0.32611  -0.32602  -0.32565  -0.31999
 Alpha virt. eigenvalues --   -0.24705  -0.24705  -0.23300  -0.15714  -0.15694
 Alpha virt. eigenvalues --   -0.09809   0.00835   0.02222   0.03597   0.03597
 Alpha virt. eigenvalues --    0.05595   0.05595   0.06062   0.07492   0.15154

 Mulliken atomic charges:
              1
     1  Ir  -0.450895
     2  Ir  -0.447983
     3  Cl   0.112270
     4  Cl   0.112270
     5  Cl   0.112270
     6  Cl   0.112270
     7  Cl   0.112449
     8  Cl   0.112449
     9  Cl   0.112449
    10  Cl   0.112449
 Sum of Mulliken atomic charges =   0.00000

 Dipole moment (field-independent basis, Debye):
    X=              0.0000    Y=              0.0000    Z=             -0.0012  Tot=              0.0012
 Quadrupole moment (field-independent basis, Debye-Ang):
   XX=           -151.6144   YY=           -151.6144   ZZ=           -148.4847
   XY=              0.0000   XZ=              0.0000   YZ=              0.0000

 Normal termination of Gaussian 09 at Tue May  5 13:04:03 2015.
