 Gaussian 09, Revision A.01,
 Gaussian 09:  EM64L-G09RevA.01  8-May-2009

 --------------------------
 #opt b3lyp/genecp pop=full
 --------------------------

 -------------------
 Title Card Required
 -------------------
 Symbolic Z-matrix:
 Charge =  0 Multiplicity = 1

 SCF Done:  E(RB3LYP) =  -3891.01532520     A.U. after   19 cycles
 SCF Done:  E(RB3LYP) =  -3891.02466489     A.U. after   12 cycles
 SCF Done:  E(RB3LYP) =  -3891.02917725     A.U. after   18 cycles
 SCF Done:  E(RB3LYP) =  -3891.03118230     A.U. after   13 cycles
 SCF Done:  E(RB3LYP) =  -3891.03147001     A.U. after   12 cycles
 SCF Done:  E(RB3LYP) =  -3891.03151093     A.U. after   16 cycles
 SCF Done:  E(RB3LYP) =  -3891.03151388     A.U. after    9 cycles
 SCF Done:  E(RB3LYP) =  -3891.03151436     A.U. after    9 cycles
 Optimization completed.
    -- Stationary point found.

                         Standard orientation:
 ---------------------------------------------------------------------
 Center     Atomic      Atomic             Coordinates (Angstroms)
 Number     Number       Type             X           Y           Z
 ---------------------------------------------------------------------
      1         77           0        0.000000    0.000000    1.202892
      2         77           0        0.000000    0.000000   -1.202889
      3         17           0        0.000000    2.286238   -1.508965
      4         17           0       -2.286238    0.000000   -1.508965
      5         17           0        2.286238    0.000000   -1.508965
      6         17           0        0.000000   -2.286238   -1.508965
      7         17           0        0.000000    2.286240    1.508963
      8         17           0       -2.286240    0.000000    1.508963
      9         17           0        2.286240    0.000000    1.508963
     10         17           0        0.000000   -2.286240    1.508963
 ---------------------------------------------------------------------

 The electronic state is 1-A1.
 Alpha  occ. eigenvalues -- -101.57591-101.57591-101.57591-101.57589-101.57588
 Alpha  occ. eigenvalues -- -101.57588-101.57587-101.57586  -9.50569  -9.50568
 Alpha  occ. eigenvalues --   -9.50568  -9.50562  -9.50562  -9.50562  -9.50559
 Alpha  occ. eigenvalues --   -9.50557  -7.26626  -7.26621  -7.26620  -7.26620
 Alpha  occ. eigenvalues --   -7.26620  -7.26620  -7.26619  -7.26619  -7.26315
 Alpha  occ. eigenvalues --   -7.26315  -7.26315  -7.26314  -7.26314  -7.26314
 Alpha  occ. eigenvalues --   -7.26313  -7.26313  -7.25768  -7.25767  -7.25767
 Alpha  occ. eigenvalues --   -7.25765  -7.25765  -7.25765  -7.25764  -7.25762
 Alpha  occ. eigenvalues --   -3.86083  -3.85870  -2.28237  -2.25809  -2.25809
 Alpha  occ. eigenvalues --   -2.25507  -2.25507  -2.25501  -0.87779  -0.86117
 Alpha  occ. eigenvalues --   -0.85601  -0.85149  -0.85149  -0.84102  -0.83676
 Alpha  occ. eigenvalues --   -0.83676  -0.49904  -0.49587  -0.48944  -0.48889
 Alpha  occ. eigenvalues --   -0.48889  -0.48161  -0.47963  -0.47781  -0.45750
 Alpha  occ. eigenvalues --   -0.42119  -0.42119  -0.41662  -0.41204  -0.41204
 Alpha  occ. eigenvalues --   -0.38483  -0.36189  -0.36189  -0.35918  -0.35794
 Alpha  occ. eigenvalues --   -0.35794  -0.34470  -0.34470  -0.34246  -0.34246
 Alpha  occ. eigenvalues --   -0.33253  -0.32134  -0.32090  -0.31589  -0.30863
 Alpha virt. eigenvalues --   -0.24590  -0.24590  -0.22659  -0.15089  -0.14049
 Alpha virt. eigenvalues --   -0.06827  -0.00475  -0.00256   0.03686   0.03686
 Alpha virt. eigenvalues --    0.05142   0.05379   0.05379   0.06457   0.15570

 Mulliken atomic charges:
              1
     1  Ir  -0.377625
     2  Ir  -0.377624
     3  Cl   0.094406
     4  Cl   0.094406
     5  Cl   0.094406
     6  Cl   0.094406
     7  Cl   0.094406
     8  Cl   0.094406
     9  Cl   0.094406
    10  Cl   0.094406
 Sum of Mulliken atomic charges =   0.00000

 Dipole moment (field-independent basis, Debye):
    X=              0.0000    Y=              0.0000    Z=              0.0000  Tot=              0.0000
 Quadrupole moment (field-independent basis, Debye-Ang):
   XX=           -152.4217   YY=           -152.4217   ZZ=           -145.8379
   XY=              0.0000   XZ=              0.0000   YZ=              0.0000

 Normal termination of Gaussian 09 at Tue May  5 13:05:48 2015.
