 Gaussian 09, Revision A.01,
 Gaussian 09:  EM64L-G09RevA.01  8-May-2009

 ------------------------
 #p b3lyp/genecp pop=full
 ------------------------

 -------------------
 Title Card Required
 -------------------
 Symbolic Z-matrix:
 Charge =  0 Multiplicity = 1

                         Standard orientation:
 ---------------------------------------------------------------------
 Center     Atomic      Atomic             Coordinates (Angstroms)
 Number     Number       Type             X           Y           Z
 ---------------------------------------------------------------------
      1         77           0        0.000000    0.000000    1.120511
      2         77           0        0.000000    0.000000   -1.119647
      3         17           0        0.000000    2.220315   -1.661489
      4         17           0       -2.220315    0.000000   -1.661489
      5         17           0        2.220315    0.000000   -1.661489
      6         17           0        0.000000   -2.220315   -1.661489
      7         17           0        0.000000    2.220315    1.660511
      8         17           0       -2.220315    0.000000    1.660511
      9         17           0        2.220315    0.000000    1.660511
     10         17           0        0.000000   -2.220315    1.660511
 ---------------------------------------------------------------------

 SCF Done:  E(RB3LYP) =  -3891.01532520     A.U. after   19 cycles

 The electronic state is 1-A1.
 Alpha  occ. eigenvalues -- -101.57462-101.57462-101.57462-101.57462-101.57457
 Alpha  occ. eigenvalues -- -101.57457-101.57457-101.57456  -9.50532  -9.50532
 Alpha  occ. eigenvalues --   -9.50532  -9.50529  -9.50524  -9.50524  -9.50523
 Alpha  occ. eigenvalues --   -9.50521  -7.26704  -7.26700  -7.26699  -7.26699
 Alpha  occ. eigenvalues --   -7.26696  -7.26695  -7.26695  -7.26695  -7.26148
 Alpha  occ. eigenvalues --   -7.26147  -7.26147  -7.26147  -7.26143  -7.26143
 Alpha  occ. eigenvalues --   -7.26141  -7.26141  -7.25726  -7.25726  -7.25725
 Alpha  occ. eigenvalues --   -7.25723  -7.25722  -7.25722  -7.25721  -7.25719
 Alpha  occ. eigenvalues --   -3.88819  -3.88290  -2.32732  -2.28283  -2.28283
 Alpha  occ. eigenvalues --   -2.27690  -2.27686  -2.27686  -0.88023  -0.87025
 Alpha  occ. eigenvalues --   -0.85381  -0.85124  -0.85124  -0.84533  -0.84414
 Alpha  occ. eigenvalues --   -0.84414  -0.54314  -0.52251  -0.52251  -0.50828
 Alpha  occ. eigenvalues --   -0.50236  -0.49480  -0.49132  -0.48532  -0.47205
 Alpha  occ. eigenvalues --   -0.44364  -0.44364  -0.41294  -0.41294  -0.40956
 Alpha  occ. eigenvalues --   -0.38670  -0.36985  -0.36132  -0.36132  -0.35958
 Alpha  occ. eigenvalues --   -0.35958  -0.34733  -0.34733  -0.33881  -0.33881
 Alpha  occ. eigenvalues --   -0.33168  -0.32898  -0.32615  -0.32030  -0.31952
 Alpha virt. eigenvalues --   -0.24236  -0.24236  -0.22851  -0.16234  -0.15012
 Alpha virt. eigenvalues --   -0.09952   0.00879   0.02011   0.03645   0.03645
 Alpha virt. eigenvalues --    0.05656   0.05656   0.06271   0.07531   0.14710

 Mulliken atomic charges:
              1
     1  Ir  -0.404140
     2  Ir  -0.401984
     3  Cl   0.100752
     4  Cl   0.100752
     5  Cl   0.100752
     6  Cl   0.100752
     7  Cl   0.100779
     8  Cl   0.100779
     9  Cl   0.100779
    10  Cl   0.100779
 Sum of Mulliken atomic charges =   0.00000

 Dipole moment (field-independent basis, Debye):
    X=              0.0000    Y=              0.0000    Z=             -0.0021  Tot=              0.0021
 Quadrupole moment (field-independent basis, Debye-Ang):
   XX=           -151.7981   YY=           -151.7981   ZZ=           -148.1156
   XY=              0.0000   XZ=              0.0000   YZ=              0.0000

 Normal termination of Gaussian 09 at Tue May  5 13:03:49 2015.
