 Gaussian 09, Revision A.01,
 Gaussian 09:  EM64L-G09RevA.01  8-May-2009

 ------------------------
 #p b3lyp/genecp pop=full
 ------------------------

 -------------------
 Title Card Required
 -------------------
 Symbolic Z-matrix:
 Charge = -2 Multiplicity = 1

                         Standard orientation:
 ---------------------------------------------------------------------
 Center     Atomic      Atomic             Coordinates (Angstroms)
 Number     Number       Type             X           Y           Z
 ---------------------------------------------------------------------
      1         42           0        0.000000    0.000000    1.120648
      2         42           0        0.000000    0.000000   -1.119510
      3         17           0        1.570000    1.570000   -1.661352
      4         17           0       -1.570000    1.570000   -1.661352
      5         17           0        1.570000   -1.570000   -1.661352
      6         17           0       -1.570000   -1.570000   -1.661352
      7         17           0        0.000000    2.220315    1.660648
      8         17           0       -2.220315    0.000000    1.660648
      9         17           0        2.220315    0.000000    1.660648
     10         17           0        0.000000   -2.220315    1.660648
 ---------------------------------------------------------------------

 SCF Done:  E(RB3LYP) =  -3817.02649863     A.U. after   15 cycles

 The electronic state is 1-A1.
 Alpha  occ. eigenvalues -- -101.24125-101.24125-101.24123-101.24123-101.24123
 Alpha  occ. eigenvalues -- -101.24122-101.24121-101.24121  -9.17528  -9.17528
 Alpha  occ. eigenvalues --   -9.17522  -9.17522  -9.17521  -9.17518  -9.17518
 Alpha  occ. eigenvalues --   -9.17518  -6.93436  -6.93436  -6.93436  -6.93435
 Alpha  occ. eigenvalues --   -6.93435  -6.93435  -6.93435  -6.93435  -6.93056
 Alpha  occ. eigenvalues --   -6.93056  -6.93056  -6.93054  -6.93054  -6.93054
 Alpha  occ. eigenvalues --   -6.93054  -6.93053  -6.93007  -6.93006  -6.93006
 Alpha  occ. eigenvalues --   -6.93004  -6.93004  -6.93003  -6.93001  -6.93001
 Alpha  occ. eigenvalues --   -2.29385  -2.27669  -1.33624  -1.32251  -1.32251
 Alpha  occ. eigenvalues --   -1.30974  -1.30974  -1.24687  -0.55340  -0.54624
 Alpha  occ. eigenvalues --   -0.53070  -0.53063  -0.52878  -0.52878  -0.52489
 Alpha  occ. eigenvalues --   -0.52489  -0.15273  -0.14993  -0.14986  -0.13415
 Alpha  occ. eigenvalues --   -0.12726  -0.12719  -0.12617  -0.12617  -0.10351
 Alpha  occ. eigenvalues --   -0.10351  -0.09859  -0.09163  -0.09163  -0.06609
 Alpha  occ. eigenvalues --   -0.05198  -0.05198  -0.04118  -0.04118  -0.04027
 Alpha  occ. eigenvalues --   -0.04022  -0.04022  -0.04022  -0.02893  -0.01912
 Alpha  occ. eigenvalues --   -0.01307   0.02094   0.02094
 Alpha virt. eigenvalues --    0.11564   0.11568   0.18685   0.18685   0.19825
 Alpha virt. eigenvalues --    0.21703   0.22312   0.22331   0.23666   0.25292
 Alpha virt. eigenvalues --    0.25292   0.25445   0.25445   0.30751   0.33242

 Mulliken atomic charges:
              1
     1  Mo   0.227235
     2  Mo   0.229695
     3  Cl  -0.307266
     4  Cl  -0.307266
     5  Cl  -0.307266
     6  Cl  -0.307266
     7  Cl  -0.306966
     8  Cl  -0.306966
     9  Cl  -0.306966
    10  Cl  -0.306966
 Sum of Mulliken atomic charges =  -2.00000

 Dipole moment (field-independent basis, Debye):
    X=              0.0000    Y=              0.0000    Z=              0.0066  Tot=              0.0066
 Quadrupole moment (field-independent basis, Debye-Ang):
   XX=           -186.7672   YY=           -186.7672   ZZ=           -187.3225
   XY=              0.0000   XZ=              0.0000   YZ=              0.0000

 Normal termination of Gaussian 09 at Tue May  5 12:47:12 2015.
