 Gaussian 09, Revision A.01,
 Gaussian 09:  EM64L-G09RevA.01  8-May-2009

 --------------------------
 #opt b3lyp/genecp pop=full
 --------------------------

 -------------------
 Title Card Required
 -------------------
 Symbolic Z-matrix:
 Charge = -2 Multiplicity = 1

 SCF Done:  E(RB3LYP) =  -3817.02479459     A.U. after   14 cycles
 SCF Done:  E(RB3LYP) =  -3817.04856174     A.U. after   10 cycles
 SCF Done:  E(RB3LYP) =  -3817.05663748     A.U. after   10 cycles
 SCF Done:  E(RB3LYP) =  -3817.05665530     A.U. after    8 cycles
 SCF Done:  E(RB3LYP) =  -3817.05665827     A.U. after    8 cycles
 Optimization completed.
    -- Stationary point found.

                         Standard orientation:
 ---------------------------------------------------------------------
 Center     Atomic      Atomic             Coordinates (Angstroms)
 Number     Number       Type             X           Y           Z
 ---------------------------------------------------------------------
      1         42           0        0.000000    0.000000    1.137783
      2         42           0        0.000000    0.000000   -1.137731
      3         17           0        0.000000    2.336223   -1.703147
      4         17           0       -2.336223    0.000000   -1.703147
      5         17           0        2.336223    0.000000   -1.703147
      6         17           0        0.000000   -2.336223   -1.703147
      7         17           0        0.000000    2.336249    1.703115
      8         17           0       -2.336249    0.000000    1.703115
      9         17           0        2.336249    0.000000    1.703115
     10         17           0        0.000000   -2.336249    1.703115
 ---------------------------------------------------------------------

 The electronic state is 1-A1.
 Alpha  occ. eigenvalues -- -101.25247-101.25247-101.25245-101.25245-101.25245
 Alpha  occ. eigenvalues -- -101.25245-101.25244-101.25243  -9.18420  -9.18420
 Alpha  occ. eigenvalues --   -9.18415  -9.18414  -9.18412  -9.18412  -9.18412
 Alpha  occ. eigenvalues --   -9.18408  -6.94364  -6.94359  -6.94359  -6.94358
 Alpha  occ. eigenvalues --   -6.94358  -6.94357  -6.94357  -6.94356  -6.93974
 Alpha  occ. eigenvalues --   -6.93973  -6.93973  -6.93972  -6.93971  -6.93971
 Alpha  occ. eigenvalues --   -6.93970  -6.93968  -6.93906  -6.93905  -6.93905
 Alpha  occ. eigenvalues --   -6.93905  -6.93903  -6.93902  -6.93901  -6.93901
 Alpha  occ. eigenvalues --   -2.31816  -2.30326  -1.35549  -1.34255  -1.34255
 Alpha  occ. eigenvalues --   -1.33118  -1.33118  -1.27514  -0.55034  -0.54304
 Alpha  occ. eigenvalues --   -0.53515  -0.53373  -0.53373  -0.52864  -0.52785
 Alpha  occ. eigenvalues --   -0.52785  -0.15134  -0.15025  -0.13428  -0.13301
 Alpha  occ. eigenvalues --   -0.12563  -0.12552  -0.12552  -0.10983  -0.10073
 Alpha  occ. eigenvalues --   -0.10061  -0.10061  -0.09617  -0.09617  -0.06453
 Alpha  occ. eigenvalues --   -0.06030  -0.05458  -0.05458  -0.05010  -0.04801
 Alpha  occ. eigenvalues --   -0.04801  -0.04384  -0.04384  -0.03133  -0.02966
 Alpha  occ. eigenvalues --   -0.02594  -0.00590  -0.00590
 Alpha virt. eigenvalues --    0.07930   0.10462   0.15743   0.15743   0.16775
 Alpha virt. eigenvalues --    0.17241   0.18551   0.21566   0.23230   0.25271
 Alpha virt. eigenvalues --    0.25271   0.25312   0.25312   0.26696   0.32857

 Mulliken atomic charges:
              1
     1  Mo   0.191465
     2  Mo   0.191516
     3  Cl  -0.297872
     4  Cl  -0.297872
     5  Cl  -0.297872
     6  Cl  -0.297872
     7  Cl  -0.297873
     8  Cl  -0.297873
     9  Cl  -0.297873
    10  Cl  -0.297873
 Sum of Mulliken atomic charges =  -2.00000

 Dipole moment (field-independent basis, Debye):
    X=              0.0000    Y=              0.0000    Z=              0.0000  Tot=              0.0000
 Quadrupole moment (field-independent basis, Debye-Ang):
   XX=           -190.2490   YY=           -190.2490   ZZ=           -190.6954
   XY=              0.0000   XZ=              0.0000   YZ=              0.0000

 Normal termination of Gaussian 09 at Tue May  5 12:51:37 2015.
