 Gaussian 09, Revision A.01,
 Gaussian 09:  EM64L-G09RevA.01  8-May-2009

 ------------------------
 #p b3lyp/genecp pop=full
 ------------------------

 -------------------
 Title Card Required
 -------------------
 Symbolic Z-matrix:
 Charge = -2 Multiplicity = 1

                         Standard orientation:
 ---------------------------------------------------------------------
 Center     Atomic      Atomic             Coordinates (Angstroms)
 Number     Number       Type             X           Y           Z
 ---------------------------------------------------------------------
      1         75           0        0.000000    0.000000    1.120517
      2         75           0        0.000000    0.000000   -1.119641
      3         17           0        0.000000    2.220315   -1.661483
      4         17           0       -2.220315    0.000000   -1.661483
      5         17           0        2.220315    0.000000   -1.661483
      6         17           0        0.000000   -2.220315   -1.661483
      7         17           0        0.000000    2.220315    1.660517
      8         17           0       -2.220315    0.000000    1.660517
      9         17           0        2.220315    0.000000    1.660517
     10         17           0        0.000000   -2.220315    1.660517
 ---------------------------------------------------------------------

 SCF Done:  E(RB3LYP) =  -3840.13475140     A.U. after   15 cycles

 The electronic state is 1-A1.
 Alpha  occ. eigenvalues -- -101.24381-101.24381-101.24380-101.24380-101.24376
 Alpha  occ. eigenvalues -- -101.24376-101.24375-101.24374  -9.17699  -9.17699
 Alpha  occ. eigenvalues --   -9.17697  -9.17695  -9.17690  -9.17690  -9.17689
 Alpha  occ. eigenvalues --   -9.17686  -6.93690  -6.93686  -6.93686  -6.93686
 Alpha  occ. eigenvalues --   -6.93681  -6.93681  -6.93681  -6.93680  -6.93211
 Alpha  occ. eigenvalues --   -6.93211  -6.93210  -6.93210  -6.93206  -6.93206
 Alpha  occ. eigenvalues --   -6.93205  -6.93205  -6.93141  -6.93141  -6.93141
 Alpha  occ. eigenvalues --   -6.93139  -6.93136  -6.93136  -6.93136  -6.93133
 Alpha  occ. eigenvalues --   -3.04580  -3.03690  -1.66956  -1.63996  -1.63996
 Alpha  occ. eigenvalues --   -1.63004  -1.63004  -1.59719  -0.56071  -0.55125
 Alpha  occ. eigenvalues --   -0.53598  -0.53345  -0.53345  -0.52790  -0.52650
 Alpha  occ. eigenvalues --   -0.52650  -0.17251  -0.16174  -0.15347  -0.14547
 Alpha  occ. eigenvalues --   -0.14492  -0.14444  -0.14444  -0.12424  -0.12174
 Alpha  occ. eigenvalues --   -0.10799  -0.10799  -0.09775  -0.09775  -0.07739
 Alpha  occ. eigenvalues --   -0.06468  -0.05976  -0.04869  -0.04869  -0.04254
 Alpha  occ. eigenvalues --   -0.04254  -0.03782  -0.03782  -0.02021  -0.01782
 Alpha  occ. eigenvalues --   -0.01144   0.00330   0.00330   0.04858
 Alpha virt. eigenvalues --    0.10874   0.17702   0.17702   0.17976   0.21674
 Alpha virt. eigenvalues --    0.23685   0.24015   0.24924   0.27050   0.27158
 Alpha virt. eigenvalues --    0.27158   0.27266   0.27266   0.35645   0.39527

 Mulliken atomic charges:
              1
     1  Re  -0.081782
     2  Re  -0.080162
     3  Cl  -0.229853
     4  Cl  -0.229853
     5  Cl  -0.229853
     6  Cl  -0.229853
     7  Cl  -0.229661
     8  Cl  -0.229661
     9  Cl  -0.229661
    10  Cl  -0.229661
 Sum of Mulliken atomic charges =  -2.00000

 Dipole moment (field-independent basis, Debye):
    X=              0.0000    Y=              0.0000    Z=              0.0087  Tot=              0.0087
 Quadrupole moment (field-independent basis, Debye-Ang):
   XX=           -188.9635   YY=           -188.9635   ZZ=           -189.2389
   XY=              0.0000   XZ=              0.0000   YZ=              0.0000

 Normal termination of Gaussian 09 at Tue May  5 12:47:23 2015.
