 Gaussian 09, Revision A.01,
 Gaussian 09:  EM64L-G09RevA.01  8-May-2009

 ------------------------
 #p b3lyp/genecp pop=full
 ------------------------

 -------------------
 Title Card Required
 -------------------
 Symbolic Z-matrix:
 Charge = -2 Multiplicity = 1

                         Standard orientation:
 ---------------------------------------------------------------------
 Center     Atomic      Atomic             Coordinates (Angstroms)
 Number     Number       Type             X           Y           Z
 ---------------------------------------------------------------------
      1         43           0        0.000000    0.000000    1.120643
      2         43           0        0.000000    0.000000   -1.119515
      3         17           0        1.570000    1.570000   -1.661357
      4         17           0       -1.570000    1.570000   -1.661357
      5         17           0        1.570000   -1.570000   -1.661357
      6         17           0       -1.570000   -1.570000   -1.661357
      7         17           0        0.000000    2.220315    1.660643
      8         17           0       -2.220315    0.000000    1.660643
      9         17           0        2.220315    0.000000    1.660643
     10         17           0        0.000000   -2.220315    1.660643
 ---------------------------------------------------------------------

 SCF Done:  E(RB3LYP) =  -3842.02893111     A.U. after   24 cycles

 The electronic state is 1-A1.
 Alpha  occ. eigenvalues -- -101.26424-101.26424-101.26423-101.26422-101.22559
 Alpha  occ. eigenvalues -- -101.22559-101.22558-101.22558  -9.19737  -9.19737
 Alpha  occ. eigenvalues --   -9.19735  -9.19733  -9.15785  -9.15785  -9.15783
 Alpha  occ. eigenvalues --   -9.15780  -6.95698  -6.95697  -6.95697  -6.95697
 Alpha  occ. eigenvalues --   -6.95292  -6.95292  -6.95292  -6.95290  -6.95168
 Alpha  occ. eigenvalues --   -6.95167  -6.95167  -6.95167  -6.91781  -6.91781
 Alpha  occ. eigenvalues --   -6.91780  -6.91780  -6.91401  -6.91400  -6.91399
 Alpha  occ. eigenvalues --   -6.91399  -6.91151  -6.91150  -6.91150  -6.91149
 Alpha  occ. eigenvalues --   -2.55429  -2.50087  -1.51037  -1.50997  -1.50997
 Alpha  occ. eigenvalues --   -1.43900  -1.43877  -1.43877  -0.56921  -0.54836
 Alpha  occ. eigenvalues --   -0.54690  -0.54690  -0.52868  -0.50766  -0.50712
 Alpha  occ. eigenvalues --   -0.50712  -0.17792  -0.16975  -0.15441  -0.14597
 Alpha  occ. eigenvalues --   -0.14597  -0.12965  -0.12221  -0.11240  -0.11192
 Alpha  occ. eigenvalues --   -0.11192  -0.10973  -0.08739  -0.08739  -0.07689
 Alpha  occ. eigenvalues --   -0.06124  -0.06124  -0.05834  -0.05499  -0.04198
 Alpha  occ. eigenvalues --   -0.04198  -0.03385  -0.02279  -0.02233  -0.02233
 Alpha  occ. eigenvalues --   -0.00234  -0.00234   0.00611   0.05378
 Alpha virt. eigenvalues --    0.05941   0.14183   0.14183   0.15119   0.16410
 Alpha virt. eigenvalues --    0.21358   0.22715   0.24065   0.24895   0.24895
 Alpha virt. eigenvalues --    0.26393   0.26393   0.29149   0.33262   0.38832

 Mulliken atomic charges:
              1
     1  Tc   0.032239
     2  Tc  -0.090385
     3  Cl  -0.196632
     4  Cl  -0.196632
     5  Cl  -0.196632
     6  Cl  -0.196632
     7  Cl  -0.288832
     8  Cl  -0.288832
     9  Cl  -0.288832
    10  Cl  -0.288832
 Sum of Mulliken atomic charges =  -2.00000

 Dipole moment (field-independent basis, Debye):
    X=              0.0000    Y=              0.0000    Z=             -3.2779  Tot=              3.2779
 Quadrupole moment (field-independent basis, Debye-Ang):
   XX=           -185.6131   YY=           -185.6131   ZZ=           -185.8685
   XY=              0.0000   XZ=              0.0000   YZ=              0.0000

 Normal termination of Gaussian 09 at Tue May  5 12:47:40 2015.
