 Gaussian 09, Revision A.01,
 Gaussian 09:  EM64L-G09RevA.01  8-May-2009

 ------------------------
 #p b3lyp/genecp pop=full
 ------------------------

 -------------------
 Title Card Required
 -------------------
 Symbolic Z-matrix:
 Charge = -2 Multiplicity = 1

                         Standard orientation:
 ---------------------------------------------------------------------
 Center     Atomic      Atomic             Coordinates (Angstroms)
 Number     Number       Type             X           Y           Z
 ---------------------------------------------------------------------
      1         43           0        0.000000    0.000000    1.120643
      2         43           0        0.000000    0.000000   -1.119515
      3         17           0        0.000000    2.220315   -1.661357
      4         17           0       -2.220315    0.000000   -1.661357
      5         17           0        2.220315    0.000000   -1.661357
      6         17           0        0.000000   -2.220315   -1.661357
      7         17           0        0.000000    2.220315    1.660643
      8         17           0       -2.220315    0.000000    1.660643
      9         17           0        2.220315    0.000000    1.660643
     10         17           0        0.000000   -2.220315    1.660643
 ---------------------------------------------------------------------

 SCF Done:  E(RB3LYP) =  -3842.06192512     A.U. after   18 cycles

 The electronic state is 1-A1.
 Alpha  occ. eigenvalues -- -101.24499-101.24499-101.24498-101.24497-101.24494
 Alpha  occ. eigenvalues -- -101.24494-101.24493-101.24493  -9.17756  -9.17756
 Alpha  occ. eigenvalues --   -9.17753  -9.17750  -9.17746  -9.17746  -9.17745
 Alpha  occ. eigenvalues --   -9.17742  -6.93740  -6.93736  -6.93736  -6.93736
 Alpha  occ. eigenvalues --   -6.93731  -6.93731  -6.93731  -6.93730  -6.93280
 Alpha  occ. eigenvalues --   -6.93280  -6.93279  -6.93279  -6.93275  -6.93274
 Alpha  occ. eigenvalues --   -6.93273  -6.93273  -6.93209  -6.93208  -6.93208
 Alpha  occ. eigenvalues --   -6.93206  -6.93203  -6.93203  -6.93203  -6.93201
 Alpha  occ. eigenvalues --   -2.53722  -2.52439  -1.51182  -1.48303  -1.48303
 Alpha  occ. eigenvalues --   -1.47292  -1.47292  -1.44139  -0.55329  -0.54443
 Alpha  occ. eigenvalues --   -0.53190  -0.53040  -0.53040  -0.52394  -0.52339
 Alpha  occ. eigenvalues --   -0.52339  -0.15904  -0.15873  -0.14300  -0.14282
 Alpha  occ. eigenvalues --   -0.14282  -0.14278  -0.13802  -0.12265  -0.11187
 Alpha  occ. eigenvalues --   -0.10437  -0.10437  -0.09357  -0.09357  -0.07297
 Alpha  occ. eigenvalues --   -0.06218  -0.05850  -0.04767  -0.04767  -0.04064
 Alpha  occ. eigenvalues --   -0.04064  -0.03666  -0.03666  -0.01886  -0.01703
 Alpha  occ. eigenvalues --   -0.01061  -0.00487  -0.00487   0.02845
 Alpha virt. eigenvalues --    0.08245   0.13880   0.13880   0.15169   0.18606
 Alpha virt. eigenvalues --    0.20085   0.21653   0.23822   0.25574   0.25574
 Alpha virt. eigenvalues --    0.25810   0.25810   0.28759   0.33576   0.38706

 Mulliken atomic charges:
              1
     1  Tc  -0.034274
     2  Tc  -0.032729
     3  Cl  -0.241718
     4  Cl  -0.241718
     5  Cl  -0.241718
     6  Cl  -0.241718
     7  Cl  -0.241531
     8  Cl  -0.241531
     9  Cl  -0.241531
    10  Cl  -0.241531
 Sum of Mulliken atomic charges =  -2.00000

 Dipole moment (field-independent basis, Debye):
    X=              0.0000    Y=              0.0000    Z=              0.0080  Tot=              0.0080
 Quadrupole moment (field-independent basis, Debye-Ang):
   XX=           -185.4485   YY=           -185.4485   ZZ=           -186.3627
   XY=              0.0000   XZ=              0.0000   YZ=              0.0000

 Normal termination of Gaussian 09 at Tue May  5 12:47:52 2015.
