 Gaussian 09, Revision A.01,
 Gaussian 09:  EM64L-G09RevA.01  8-May-2009

 --------------------------
 #opt b3lyp/genecp pop=full
 --------------------------

 -------------------
 Title Card Required
 -------------------
 Symbolic Z-matrix:
 Charge = -2 Multiplicity = 1

 SCF Done:  E(RB3LYP) =  -3842.06192512     A.U. after   18 cycles
 SCF Done:  E(RB3LYP) =  -3842.07841096     A.U. after   13 cycles
 SCF Done:  E(RB3LYP) =  -3842.08241208     A.U. after   14 cycles
 SCF Done:  E(RB3LYP) =  -3842.08249749     A.U. after   10 cycles
 SCF Done:  E(RB3LYP) =  -3842.08251327     A.U. after   10 cycles
 Optimization completed.
    -- Stationary point found.

                         Standard orientation:
 ---------------------------------------------------------------------
 Center     Atomic      Atomic             Coordinates (Angstroms)
 Number     Number       Type             X           Y           Z
 ---------------------------------------------------------------------
      1         43           0        0.000000    0.000000    1.083043
      2         43           0        0.000000    0.000000   -1.082969
      3         17           0        0.000000    2.303303   -1.692529
      4         17           0       -2.303303    0.000000   -1.692529
      5         17           0        2.303303    0.000000   -1.692529
      6         17           0        0.000000   -2.303303   -1.692529
      7         17           0        0.000000    2.303342    1.692482
      8         17           0       -2.303342    0.000000    1.692482
      9         17           0        2.303342    0.000000    1.692482
     10         17           0        0.000000   -2.303342    1.692482
 ---------------------------------------------------------------------

 The electronic state is 1-A1.
 Alpha  occ. eigenvalues -- -101.25267-101.25267-101.25266-101.25265-101.25265
 Alpha  occ. eigenvalues -- -101.25264-101.25264-101.25263  -9.18376  -9.18376
 Alpha  occ. eigenvalues --   -9.18374  -9.18370  -9.18370  -9.18368  -9.18368
 Alpha  occ. eigenvalues --   -9.18365  -6.94398  -6.94393  -6.94393  -6.94392
 Alpha  occ. eigenvalues --   -6.94392  -6.94392  -6.94392  -6.94391  -6.93888
 Alpha  occ. eigenvalues --   -6.93887  -6.93887  -6.93887  -6.93885  -6.93885
 Alpha  occ. eigenvalues --   -6.93883  -6.93883  -6.93844  -6.93843  -6.93843
 Alpha  occ. eigenvalues --   -6.93842  -6.93841  -6.93841  -6.93840  -6.93838
 Alpha  occ. eigenvalues --   -2.56180  -2.54363  -1.54643  -1.50226  -1.50226
 Alpha  occ. eigenvalues --   -1.48884  -1.48884  -1.45676  -0.54947  -0.54162
 Alpha  occ. eigenvalues --   -0.53243  -0.53243  -0.53171  -0.52616  -0.52616
 Alpha  occ. eigenvalues --   -0.52469  -0.16190  -0.15560  -0.14998  -0.14998
 Alpha  occ. eigenvalues --   -0.13612  -0.13590  -0.13505  -0.12266  -0.11338
 Alpha  occ. eigenvalues --   -0.10499  -0.10499  -0.09621  -0.09621  -0.08159
 Alpha  occ. eigenvalues --   -0.06205  -0.06115  -0.05376  -0.05376  -0.04403
 Alpha  occ. eigenvalues --   -0.04403  -0.04024  -0.04024  -0.02673  -0.02673
 Alpha  occ. eigenvalues --   -0.02589  -0.02571  -0.02003   0.00543
 Alpha virt. eigenvalues --    0.06399   0.12526   0.12526   0.13756   0.14527
 Alpha virt. eigenvalues --    0.16395   0.21571   0.23128   0.25577   0.25577
 Alpha virt. eigenvalues --    0.25745   0.25745   0.25926   0.33575   0.36634

 Mulliken atomic charges:
              1
     1  Tc  -0.005747
     2  Tc  -0.005662
     3  Cl  -0.248573
     4  Cl  -0.248573
     5  Cl  -0.248573
     6  Cl  -0.248573
     7  Cl  -0.248574
     8  Cl  -0.248574
     9  Cl  -0.248574
    10  Cl  -0.248574
 Sum of Mulliken atomic charges =  -2.00000

 Dipole moment (field-independent basis, Debye):
    X=              0.0000    Y=              0.0000    Z=              0.0002  Tot=              0.0002
 Quadrupole moment (field-independent basis, Debye-Ang):
   XX=           -187.7561   YY=           -187.7561   ZZ=           -188.5529
   XY=              0.0000   XZ=              0.0000   YZ=              0.0000

 Normal termination of Gaussian 09 at Tue May  5 12:53:37 2015.
