 Gaussian 09, Revision A.01,
 Gaussian 09:  EM64L-G09RevA.01  8-May-2009

 ----------------
 #opt b3lyp/6-31g
 ----------------

 -------------------
 Title Card Required
 -------------------
 Symbolic Z-matrix:
 Charge =  0 Multiplicity = 1

 SCF Done:  E(RB3LYP) =  -467.157134270     A.U. after   15 cycles
 SCF Done:  E(RB3LYP) =  -467.159813193     A.U. after   14 cycles
 SCF Done:  E(RB3LYP) =  -467.159906938     A.U. after   10 cycles
 SCF Done:  E(RB3LYP) =  -467.159915426     A.U. after    9 cycles
 Optimization completed.
    -- Stationary point found.

                         Standard orientation:
 ---------------------------------------------------------------------
 Center     Atomic      Atomic             Coordinates (Angstroms)
 Number     Number       Type             X           Y           Z
 ---------------------------------------------------------------------
      1          6           0        1.365223    0.192086    0.000000
      2          7           0        1.690512   -1.127860    0.000000
      3          6           0        0.696111   -2.048735    0.000000
      4          6           0        0.000000    0.547795    0.000000
      5          6           0       -0.928468   -0.506230    0.000000
      6          7           0       -0.635686   -1.823977    0.000000
      7          1           0        1.010354   -3.084734    0.000000
      8          7           0        2.362879    1.108624    0.000000
      9          1           0        3.316886    0.786966    0.000000
     10          1           0        2.154345    2.093214    0.000000
     11          7           0       -0.651724    1.786390    0.000000
     12          6           0       -1.942795    1.483042    0.000000
     13          7           0       -2.168474    0.109092    0.000000
     14          1           0       -2.748587    2.198205    0.000000
     15          1           0       -3.055975   -0.367290    0.000000
 ---------------------------------------------------------------------

 The electronic state is 1-A'.
 Alpha  occ. eigenvalues --  -14.40211 -14.35506 -14.34227 -14.33387 -14.32772
 Alpha  occ. eigenvalues --  -10.28257 -10.26908 -10.26654 -10.25130 -10.22016
 Alpha  occ. eigenvalues --   -1.04659  -0.98966  -0.94460  -0.89763  -0.86753
 Alpha  occ. eigenvalues --   -0.77639  -0.67569  -0.65781  -0.63571  -0.58947
 Alpha  occ. eigenvalues --   -0.55869  -0.52333  -0.50652  -0.46894  -0.46581
 Alpha  occ. eigenvalues --   -0.45445  -0.43065  -0.40456  -0.35870  -0.30736
 Alpha  occ. eigenvalues --   -0.29587  -0.27629  -0.27091  -0.24207  -0.22339
 Alpha virt. eigenvalues --   -0.02625   0.00076   0.03414   0.07343   0.08758
 Alpha virt. eigenvalues --    0.12402   0.13494   0.15769   0.15990   0.18376
 Alpha virt. eigenvalues --    0.22659   0.24080   0.26002   0.30249   0.31723

 Mulliken atomic charges:
              1
     1  C    0.420263
     2  N   -0.422717
     3  C    0.108881
     4  C    0.093823
     5  C    0.408917
     6  N   -0.353030
     7  H    0.154938
     8  N   -0.749785
     9  H    0.334534
    10  H    0.345269
    11  N   -0.408753
    12  C    0.265645
    13  N   -0.713103
    14  H    0.176984
    15  H    0.338133
 Sum of Mulliken atomic charges =   0.00000

 Dipole moment (field-independent basis, Debye):
    X=             -1.5305    Y=              1.9481    Z=              0.0000  Tot=              2.4774
 Quadrupole moment (field-independent basis, Debye-Ang):
   XX=            -40.4653   YY=            -60.1976   ZZ=            -58.9033
   XY=              2.0575   XZ=              0.0000   YZ=              0.0000

 Normal termination of Gaussian 09 at Fri May 15 11:09:31 2015.
