 Gaussian 09, Revision A.01,
 Gaussian 09:  EM64L-G09RevA.01  8-May-2009

 ----------------
 #opt b3lyp/6-31g
 ----------------

 -------------------
 Title Card Required
 -------------------
 Symbolic Z-matrix:
 Charge =  0 Multiplicity = 1

 SCF Done:  E(RB3LYP) =  -921.172126614     A.U. after   16 cycles
 SCF Done:  E(RB3LYP) =  -921.173106408     A.U. after   17 cycles
 SCF Done:  E(RB3LYP) =  -921.173558392     A.U. after   17 cycles
 SCF Done:  E(RB3LYP) =  -921.175376254     A.U. after   14 cycles
 SCF Done:  E(RB3LYP) =  -921.176555712     A.U. after   14 cycles
 SCF Done:  E(RB3LYP) =  -921.176918801     A.U. after   13 cycles
 SCF Done:  E(RB3LYP) =  -921.177338100     A.U. after   13 cycles
 SCF Done:  E(RB3LYP) =  -921.177381346     A.U. after   14 cycles
 SCF Done:  E(RB3LYP) =  -921.177107234     A.U. after   16 cycles
 SCF Done:  E(RB3LYP) =  -921.177610772     A.U. after   14 cycles
 SCF Done:  E(RB3LYP) =  -921.177961688     A.U. after    9 cycles
 SCF Done:  E(RB3LYP) =  -921.177962989     A.U. after    9 cycles
 SCF Done:  E(RB3LYP) =  -921.177964365     A.U. after    9 cycles
 SCF Done:  E(RB3LYP) =  -921.177966791     A.U. after   10 cycles
 SCF Done:  E(RB3LYP) =  -921.177968903     A.U. after    9 cycles
 SCF Done:  E(RB3LYP) =  -921.177971641     A.U. after   10 cycles
 SCF Done:  E(RB3LYP) =  -921.177972388     A.U. after    9 cycles
 SCF Done:  E(RB3LYP) =  -921.177972423     A.U. after    8 cycles
 SCF Done:  E(RB3LYP) =  -921.177972439     A.U. after    8 cycles
 SCF Done:  E(RB3LYP) =  -921.177972456     A.U. after    7 cycles
 Optimization completed.
    -- Stationary point found.

                         Standard orientation:
 ---------------------------------------------------------------------
 Center     Atomic      Atomic             Coordinates (Angstroms)
 Number     Number       Type             X           Y           Z
 ---------------------------------------------------------------------
      1          6           0        4.449232    0.352697   -0.364335
      2          7           0        4.091117    1.644639   -0.593567
      3          6           0        2.784849    1.988179   -0.487999
      4          6           0        3.444210   -0.576459   -0.027874
      5          6           0        2.125285   -0.093759    0.046905
      6          7           0        1.743983    1.188037   -0.174521
      7          1           0        2.553508    3.028884   -0.678521
      8          7           0        5.756905    0.011296   -0.468827
      9          1           0        6.427373    0.720961   -0.713612
     10          1           0        6.050107   -0.937548   -0.305577
     11          7           0        3.485532   -1.943783    0.258828
     12          6           0        2.216525   -2.263981    0.497940
     13          7           0        1.352301   -1.184778    0.385753
     14          1           0        1.867016   -3.250457    0.753829
     15          1           0        0.335098   -1.188445    0.501340
     16          6           0       -1.390389    1.589340    1.295322
     17          6           0       -2.560632    0.914807    0.637279
     18          1           0       -0.495238    1.573145    0.658883
     19          1           0       -1.123916    1.080060    2.229498
     20          1           0       -1.625467    2.631856    1.531582
     21          6           0       -2.462458   -0.501790    0.300740
     22          6           0       -3.721715    1.555691    0.336361
     23          7           0       -4.793483    0.918418   -0.267352
     24          1           0       -3.868905    2.605647    0.555887
     25          7           0       -3.596819   -1.065787   -0.296650
     26          6           0       -4.794324   -0.428493   -0.615875
     27          1           0       -3.541214   -2.048889   -0.534162
     28          1           0       -5.640884    1.423097   -0.482914
     29          8           0       -5.758494   -0.997697   -1.152934
     30          8           0       -1.461223   -1.231303    0.511351
 ---------------------------------------------------------------------

 The electronic state is 1-A.
 Alpha  occ. eigenvalues --  -19.15312 -19.14708 -14.42151 -14.41056 -14.37421
 Alpha  occ. eigenvalues --  -14.34679 -14.32772 -14.32580 -14.31951 -10.36413
 Alpha  occ. eigenvalues --  -10.33554 -10.27967 -10.27301 -10.25235 -10.25057
 Alpha  occ. eigenvalues --  -10.24393 -10.23040 -10.20721 -10.18519  -1.10120
 Alpha  occ. eigenvalues --   -1.07132  -1.02947  -1.00237  -0.97918  -0.95284
 Alpha  occ. eigenvalues --   -0.93479  -0.87972  -0.85654  -0.83738  -0.76326
 Alpha  occ. eigenvalues --   -0.73048  -0.70107  -0.68935  -0.66224  -0.64556
 Alpha  occ. eigenvalues --   -0.61387  -0.59002  -0.58771  -0.57786  -0.54761
 Alpha  occ. eigenvalues --   -0.54490  -0.51186  -0.50058  -0.49543  -0.49171
 Alpha  occ. eigenvalues --   -0.45991  -0.45477  -0.44500  -0.44255  -0.43517
 Alpha  occ. eigenvalues --   -0.43474  -0.41921  -0.41530  -0.41042  -0.39506
 Alpha  occ. eigenvalues --   -0.39219  -0.36973  -0.34948  -0.30851  -0.30314
 Alpha  occ. eigenvalues --   -0.29792  -0.28669  -0.28015  -0.26549  -0.25854
 Alpha  occ. eigenvalues --   -0.25532  -0.23416  -0.21304
 Alpha virt. eigenvalues --   -0.06243  -0.01511  -0.01275   0.01134   0.04587
 Alpha virt. eigenvalues --    0.04854   0.08489   0.09033   0.09223   0.10252
 Alpha virt. eigenvalues --    0.12663   0.13749   0.14227   0.15536   0.15899

 Mulliken atomic charges:
              1
     1  C    0.416867
     2  N   -0.427727
     3  C    0.111975
     4  C    0.091502
     5  C    0.418991
     6  N   -0.377935
     7  H    0.145610
     8  N   -0.751767
     9  H    0.331064
    10  H    0.344419
    11  N   -0.418089
    12  C    0.260245
    13  N   -0.742360
    14  H    0.172084
    15  H    0.392869
    16  C   -0.492149
    17  C    0.062959
    18  H    0.227886
    19  H    0.161430
    20  H    0.132794
    21  C    0.535789
    22  C    0.115741
    23  N   -0.686899
    24  H    0.182190
    25  N   -0.703151
    26  C    0.697521
    27  H    0.360607
    28  H    0.355709
    29  O   -0.419866
    30  O   -0.498306
 Sum of Mulliken atomic charges =   0.00000

 Dipole moment (field-independent basis, Debye):
    X=             -2.6664    Y=              2.2341    Z=              1.2536  Tot=              3.6977
 Quadrupole moment (field-independent basis, Debye-Ang):
   XX=           -101.3263   YY=           -103.6326   ZZ=           -112.1089
   XY=            -19.0964   XZ=             -8.1636   YZ=              0.2493

 Normal termination of Gaussian 09 at Mon May 18 20:46:15 2015.
