 Gaussian 09, Revision A.01,
 Gaussian 09:  EM64L-G09RevA.01  8-May-2009

 ----------------
 #opt b3lyp/6-31g
 ----------------

 -------------------
 Title Card Required
 -------------------
 Symbolic Z-matrix:
 Charge =  0 Multiplicity = 1

 SCF Done:  E(RB3LYP) =  -453.990434753     A.U. after   15 cycles
 SCF Done:  E(RB3LYP) =  -453.996589434     A.U. after   14 cycles
 SCF Done:  E(RB3LYP) =  -453.996950502     A.U. after   13 cycles
 SCF Done:  E(RB3LYP) =  -453.997209288     A.U. after   12 cycles
 SCF Done:  E(RB3LYP) =  -453.997447356     A.U. after   13 cycles
 SCF Done:  E(RB3LYP) =  -453.997622512     A.U. after   12 cycles
 SCF Done:  E(RB3LYP) =  -453.997840451     A.U. after   13 cycles
 SCF Done:  E(RB3LYP) =  -453.997872537     A.U. after   17 cycles
 SCF Done:  E(RB3LYP) =  -453.997883865     A.U. after   10 cycles
 SCF Done:  E(RB3LYP) =  -453.997888739     A.U. after    9 cycles
 SCF Done:  E(RB3LYP) =  -453.997889343     A.U. after   15 cycles
 Optimization completed.
    -- Stationary point found.

                         Standard orientation:
 ---------------------------------------------------------------------
 Center     Atomic      Atomic             Coordinates (Angstroms)
 Number     Number       Type             X           Y           Z
 ---------------------------------------------------------------------
      1          6           0        2.639014   -0.728017    0.000011
      2          6           0        1.155243   -0.495954   -0.000069
      3          1           0        3.106356   -0.267603    0.878082
      4          1           0        3.106545   -0.266796   -0.877530
      5          1           0        2.875743   -1.796288   -0.000462
      6          6           0        0.679503    0.889711    0.000057
      7          6           0        0.235318   -1.493282   -0.000069
      8          7           0       -1.129673   -1.244995    0.000098
      9          1           0        0.517222   -2.539036   -0.000059
     10          7           0       -0.722860    1.038245   -0.000007
     11          6           0       -1.683116    0.033518    0.000023
     12          1           0       -1.073789    1.988119   -0.000038
     13          1           0       -1.794579   -2.004105    0.000036
     14          8           0       -2.908862    0.241971   -0.000044
     15          8           0        1.418169    1.895166   -0.000004
 ---------------------------------------------------------------------

 The electronic state is 1-A.
 Alpha  occ. eigenvalues --  -19.13597 -19.13260 -14.41004 -14.39510 -10.35284
 Alpha  occ. eigenvalues --  -10.31566 -10.27056 -10.22153 -10.19274  -1.08819
 Alpha  occ. eigenvalues --   -1.05477  -0.98999  -0.93857  -0.82925  -0.72634
 Alpha  occ. eigenvalues --   -0.69071  -0.67580  -0.58140  -0.57581  -0.53369
 Alpha  occ. eigenvalues --   -0.48831  -0.47913  -0.43680  -0.43208  -0.42529
 Alpha  occ. eigenvalues --   -0.41037  -0.40040  -0.39452  -0.36209  -0.29368
 Alpha  occ. eigenvalues --   -0.28559  -0.26665  -0.24623
 Alpha virt. eigenvalues --   -0.04749  -0.00090   0.05336   0.09340   0.10083
 Alpha virt. eigenvalues --    0.10518   0.12889   0.15525   0.18040   0.19455
 Alpha virt. eigenvalues --    0.19874   0.20802   0.26946   0.29504   0.32137

 Mulliken atomic charges:
              1
     1  C   -0.455531
     2  C    0.044650
     3  H    0.173061
     4  H    0.173077
     5  H    0.134093
     6  C    0.493633
     7  C    0.118862
     8  N   -0.690475
     9  H    0.174475
    10  N   -0.704195
    11  C    0.694732
    12  H    0.356152
    13  H    0.350706
    14  O   -0.428452
    15  O   -0.434785
 Sum of Mulliken atomic charges =   0.00000

 Dipole moment (field-independent basis, Debye):
    X=              1.0209    Y=             -4.4542    Z=              0.0001  Tot=              4.5697
 Quadrupole moment (field-independent basis, Debye-Ang):
   XX=            -63.0848   YY=            -47.0213   ZZ=            -52.1169
   XY=             -3.2324   XZ=              0.0001   YZ=              0.0003

 Normal termination of Gaussian 09 at Fri May 15 11:10:58 2015.
