 Gaussian 09, Revision A.01,
 Gaussian 09:  EM64L-G09RevA.01  8-May-2009

 -----------------
 # opt b3lyp/6-31g
 -----------------

 -------------------
 Title Card Required
 -------------------
 Symbolic Z-matrix:
 Charge =  0 Multiplicity = 1

 SCF Done:  E(RB3LYP) =  -542.285295724     A.U. after   16 cycles
 SCF Done:  E(RB3LYP) =  -542.347917430     A.U. after   14 cycles
 SCF Done:  E(RB3LYP) =  -542.366154349     A.U. after   15 cycles
 SCF Done:  E(RB3LYP) =  -542.368669472     A.U. after   14 cycles
 SCF Done:  E(RB3LYP) =  -542.369415317     A.U. after   14 cycles
 SCF Done:  E(RB3LYP) =  -542.369643059     A.U. after   13 cycles
 SCF Done:  E(RB3LYP) =  -542.369739295     A.U. after   13 cycles
 SCF Done:  E(RB3LYP) =  -542.369799344     A.U. after   17 cycles
 SCF Done:  E(RB3LYP) =  -542.369828231     A.U. after   12 cycles
 SCF Done:  E(RB3LYP) =  -542.369834544     A.U. after    9 cycles
 SCF Done:  E(RB3LYP) =  -542.369835262     A.U. after   16 cycles
 Optimization completed.
    -- Stationary point found.

                         Standard orientation:
 ---------------------------------------------------------------------
 Center     Atomic      Atomic             Coordinates (Angstroms)
 Number     Number       Type             X           Y           Z
 ---------------------------------------------------------------------
      1          6           0       -0.209976    1.467838   -0.000073
      2          8           0       -0.180007    2.710994    0.000103
      3          7           0       -1.491556    0.802448   -0.000049
      4          6           0       -1.695626   -0.564124   -0.000224
      5          1           0       -2.275631    1.443388   -0.000272
      6          7           0       -2.981866   -1.020108    0.000165
      7          1           0       -3.781441   -0.411473   -0.000102
      8          1           0       -3.120010   -2.016831    0.000558
      9          7           0       -0.700092   -1.441890   -0.000166
     10          6           0        0.535469   -0.861839    0.000089
     11          6           0        0.849338    0.503003    0.000104
     12          7           0        2.234248    0.684549   -0.000061
     13          6           0        2.741034   -0.536884   -0.000009
     14          7           0        1.745066   -1.518096    0.000045
     15          1           0        3.789909   -0.781046    0.000062
     16          1           0        1.865195   -2.518283    0.000070
 ---------------------------------------------------------------------

 The electronic state is 1-A.
 Alpha  occ. eigenvalues --  -19.11363 -14.39758 -14.39504 -14.37837 -14.34003
 Alpha  occ. eigenvalues --  -14.33028 -10.33441 -10.30216 -10.26974 -10.25382
 Alpha  occ. eigenvalues --  -10.21052  -1.05753  -1.03295  -1.01495  -0.92668
 Alpha  occ. eigenvalues --   -0.91730  -0.88676  -0.77209  -0.68337  -0.67218
 Alpha  occ. eigenvalues --   -0.62987  -0.61288  -0.56164  -0.55579  -0.53180
 Alpha  occ. eigenvalues --   -0.49696  -0.47976  -0.47063  -0.44020  -0.43127
 Alpha  occ. eigenvalues --   -0.40450  -0.39103  -0.31374  -0.30624  -0.28772
 Alpha  occ. eigenvalues --   -0.28225  -0.25980  -0.25219  -0.21060
 Alpha virt. eigenvalues --   -0.01103  -0.00523   0.04263   0.04303   0.07681
 Alpha virt. eigenvalues --    0.09136   0.11308   0.13507   0.15465   0.18545
 Alpha virt. eigenvalues --    0.19686   0.21857   0.24221   0.28431   0.30155

 Mulliken atomic charges:
              1
     1  C    0.492797
     2  O   -0.426779
     3  N   -0.737702
     4  C    0.691784
     5  H    0.332046
     6  N   -0.758543
     7  H    0.328585
     8  H    0.348185
     9  N   -0.411260
    10  C    0.431161
    11  C    0.049889
    12  N   -0.377822
    13  C    0.249411
    14  N   -0.717250
    15  H    0.172020
    16  H    0.333476
 Sum of Mulliken atomic charges =   0.00000

 Dipole moment (field-independent basis, Debye):
    X=             -4.1275    Y=             -5.9068    Z=             -0.0004  Tot=              7.2060
 Quadrupole moment (field-independent basis, Debye-Ang):
   XX=            -39.8047   YY=            -70.1373   ZZ=            -64.1083
   XY=             -9.9940   XZ=              0.0019   YZ=             -0.0037

 Normal termination of Gaussian 09 at Wed Apr 29 16:08:46 2015.
