 Gaussian 09, Revision A.01,
 Gaussian 09:  EM64L-G09RevA.01  8-May-2009

 ----------------
 #opt b3lyp/6-31g
 ----------------

 -------------------
 Title Card Required
 -------------------
 Symbolic Z-matrix:
 Charge =  0 Multiplicity = 1

 SCF Done:  E(RB3LYP) =  -921.175677666     A.U. after   16 cycles
 SCF Done:  E(RB3LYP) =  -921.178106079     A.U. after   13 cycles
 SCF Done:  E(RB3LYP) =  -921.180875115     A.U. after   14 cycles
 SCF Done:  E(RB3LYP) =  -921.183953702     A.U. after   16 cycles
 SCF Done:  E(RB3LYP) =  -921.186511935     A.U. after   13 cycles
 SCF Done:  E(RB3LYP) =  -921.188945256     A.U. after   13 cycles
 SCF Done:  E(RB3LYP) =  -921.189804266     A.U. after   13 cycles
 SCF Done:  E(RB3LYP) =  -921.190157184     A.U. after   13 cycles
 SCF Done:  E(RB3LYP) =  -921.190327106     A.U. after   11 cycles
 SCF Done:  E(RB3LYP) =  -921.190405624     A.U. after   12 cycles
 SCF Done:  E(RB3LYP) =  -921.191011500     A.U. after    9 cycles
 SCF Done:  E(RB3LYP) =  -921.191023393     A.U. after   10 cycles
 SCF Done:  E(RB3LYP) =  -921.191041515     A.U. after   11 cycles
 SCF Done:  E(RB3LYP) =  -921.191054160     A.U. after   11 cycles
 SCF Done:  E(RB3LYP) =  -921.191064658     A.U. after   11 cycles
 SCF Done:  E(RB3LYP) =  -921.191070553     A.U. after   11 cycles
 SCF Done:  E(RB3LYP) =  -921.191072723     A.U. after    9 cycles
 SCF Done:  E(RB3LYP) =  -921.191073520     A.U. after    8 cycles
 SCF Done:  E(RB3LYP) =  -921.191073778     A.U. after    8 cycles
 SCF Done:  E(RB3LYP) =  -921.191073879     A.U. after    8 cycles
 Optimization completed.
    -- Stationary point found.

                         Standard orientation:
 ---------------------------------------------------------------------
 Center     Atomic      Atomic             Coordinates (Angstroms)
 Number     Number       Type             X           Y           Z
 ---------------------------------------------------------------------
      1          6           0        2.386700   -1.392632   -0.000162
      2          7           0        3.679092   -1.837625   -0.000895
      3          6           0        4.691601   -0.942764   -0.001023
      4          6           0        2.182071    0.009312    0.000389
      5          6           0        3.322724    0.826490    0.000199
      6          7           0        4.604464    0.407281   -0.000493
      7          1           0        5.691449   -1.358713   -0.001615
      8          7           0        1.393478   -2.301796   -0.000030
      9          1           0        1.660945   -3.273982   -0.000672
     10          1           0        0.401686   -2.058232    0.000739
     11          7           0        1.033200    0.806692    0.001127
     12          6           0        1.460169    2.064520    0.001284
     13          7           0        2.841395    2.129161    0.000783
     14          1           0        0.809009    2.923919    0.001619
     15          1           0        3.413038    2.958472    0.000803
     16          6           0       -4.349930   -2.270461    0.000397
     17          6           0       -3.702680   -0.915323    0.000033
     18          1           0       -4.043100   -2.850203    0.878581
     19          1           0       -4.042771   -2.850844   -0.877249
     20          1           0       -5.441330   -2.190787    0.000161
     21          6           0       -2.241335   -0.841066    0.000327
     22          6           0       -4.396423    0.252758   -0.000496
     23          7           0       -3.764282    1.485415   -0.000793
     24          1           0       -5.479210    0.282126   -0.000710
     25          7           0       -1.689049    0.435094   -0.000229
     26          6           0       -2.376708    1.632224   -0.000637
     27          1           0       -0.634789    0.513460   -0.000236
     28          1           0       -4.295959    2.343244   -0.001075
     29          8           0       -1.824696    2.754055   -0.000820
     30          8           0       -1.498327   -1.859850    0.001008
 ---------------------------------------------------------------------

 The electronic state is 1-A.
 Alpha  occ. eigenvalues --  -19.13202 -19.13075 -14.40725 -14.40439 -14.37187
 Alpha  occ. eigenvalues --  -14.35193 -14.33578 -14.32871 -14.32144 -10.34557
 Alpha  occ. eigenvalues --  -10.31292 -10.27716 -10.27172 -10.26849 -10.26555
 Alpha  occ. eigenvalues --  -10.24697 -10.22219 -10.21886 -10.19158  -1.08019
 Alpha  occ. eigenvalues --   -1.04965  -1.04806  -0.98487  -0.98422  -0.93668
 Alpha  occ. eigenvalues --   -0.92792  -0.89743  -0.85965  -0.82579  -0.77530
 Alpha  occ. eigenvalues --   -0.72307  -0.68259  -0.67184  -0.66904  -0.65467
 Alpha  occ. eigenvalues --   -0.63738  -0.58242  -0.57535  -0.57188  -0.55140
 Alpha  occ. eigenvalues --   -0.52238  -0.51808  -0.50284  -0.48295  -0.47826
 Alpha  occ. eigenvalues --   -0.46929  -0.46439  -0.45006  -0.43341  -0.43041
 Alpha  occ. eigenvalues --   -0.42946  -0.42126  -0.40781  -0.40037  -0.39671
 Alpha  occ. eigenvalues --   -0.39355  -0.35825  -0.35510  -0.31960  -0.29751
 Alpha  occ. eigenvalues --   -0.28913  -0.27745  -0.27637  -0.26921  -0.26784
 Alpha  occ. eigenvalues --   -0.24403  -0.23956  -0.21541
 Alpha virt. eigenvalues --   -0.04521  -0.02379   0.00096   0.00379   0.03222
 Alpha virt. eigenvalues --    0.05707   0.07644   0.10032   0.10554   0.11499
 Alpha virt. eigenvalues --    0.12885   0.14120   0.15408   0.16013   0.16184

 Mulliken atomic charges:
              1
     1  C    0.432001
     2  N   -0.423030
     3  C    0.110397
     4  C    0.190774
     5  C    0.373195
     6  N   -0.355935
     7  H    0.153549
     8  N   -0.773638
     9  H    0.325721
    10  H    0.390499
    11  N   -0.558171
    12  C    0.312228
    13  N   -0.712387
    14  H    0.219972
    15  H    0.342499
    16  C   -0.455705
    17  C    0.052961
    18  H    0.171109
    19  H    0.171098
    20  H    0.133165
    21  C    0.516027
    22  C    0.117392
    23  N   -0.686928
    24  H    0.172675
    25  N   -0.741074
    26  C    0.696537
    27  H    0.429839
    28  H    0.347109
    29  O   -0.460643
    30  O   -0.491236
 Sum of Mulliken atomic charges =   0.00000

 Dipole moment (field-independent basis, Debye):
    X=             -5.8332    Y=              2.3132    Z=             -0.0001  Tot=              6.2752
 Quadrupole moment (field-independent basis, Debye-Ang):
   XX=            -90.6853   YY=           -104.6995   ZZ=           -111.0168
   XY=              6.1053   XZ=              0.0094   YZ=              0.0090

 Normal termination of Gaussian 09 at Sat May 23 14:36:56 2015.
