 Gaussian 09, Revision A.01,
 Gaussian 09:  EM64L-G09RevA.01  8-May-2009

 ----------------
 #opt b3lyp/6-31g
 ----------------

 -------------------
 Title Card Required
 -------------------
 Symbolic Z-matrix:
 Charge =  0 Multiplicity = 1

 SCF Done:  E(RB3LYP) =  -569.091497919     A.U. after   15 cycles
 SCF Done:  E(RB3LYP) =  -569.103695573     A.U. after   13 cycles
 SCF Done:  E(RB3LYP) =  -569.106413098     A.U. after   13 cycles
 SCF Done:  E(RB3LYP) =  -569.107669151     A.U. after   13 cycles
 SCF Done:  E(RB3LYP) =  -569.109242472     A.U. after   14 cycles
 SCF Done:  E(RB3LYP) =  -569.111031732     A.U. after   14 cycles
 SCF Done:  E(RB3LYP) =  -569.113032350     A.U. after   14 cycles
 SCF Done:  E(RB3LYP) =  -569.114310287     A.U. after   13 cycles
 SCF Done:  E(RB3LYP) =  -569.114819122     A.U. after   13 cycles
 SCF Done:  E(RB3LYP) =  -569.115139952     A.U. after   13 cycles
 SCF Done:  E(RB3LYP) =  -569.115737845     A.U. after   13 cycles
 SCF Done:  E(RB3LYP) =  -569.115877488     A.U. after   16 cycles
 SCF Done:  E(RB3LYP) =  -569.115928311     A.U. after   11 cycles
 SCF Done:  E(RB3LYP) =  -569.115956587     A.U. after   15 cycles
 SCF Done:  E(RB3LYP) =  -569.115988594     A.U. after   11 cycles
 SCF Done:  E(RB3LYP) =  -569.116001416     A.U. after   16 cycles
 SCF Done:  E(RB3LYP) =  -569.116003958     A.U. after   15 cycles
 SCF Done:  E(RB3LYP) =  -569.116005302     A.U. after    9 cycles
 SCF Done:  E(RB3LYP) =  -569.116006074     A.U. after   15 cycles
 SCF Done:  E(RB3LYP) =  -569.116006241     A.U. after    8 cycles
 Optimization completed.
    -- Stationary point found.

                         Standard orientation:
 ---------------------------------------------------------------------
 Center     Atomic      Atomic             Coordinates (Angstroms)
 Number     Number       Type             X           Y           Z
 ---------------------------------------------------------------------
      1          6           0        0.166421    1.071292   -0.001879
      2          8           0        0.096688   -0.193750   -0.003321
      3          8           0       -0.876125    1.875974   -0.001076
      4          1           0        1.135718    1.568471   -0.001008
      5          1           0       -1.792850    1.414168   -0.001201
      6          6           0       -3.213638   -0.692261    0.002622
      7          8           0       -3.126147    0.554423    0.001313
      8          8           0       -2.190516   -1.543973   -0.000462
      9          1           0       -4.176359   -1.201445    0.006603
     10          1           0       -1.277691   -1.096271   -0.004171
     11          6           0        3.473197   -0.385499    0.001714
     12          8           0        3.224171    0.827783    0.002872
     13          8           0        2.554383   -1.373487   -0.001266
     14          1           0        4.484262   -0.796905    0.002995
     15          1           0        1.611417   -1.024963   -0.002442
 ---------------------------------------------------------------------

 The electronic state is 1-A.
 Alpha  occ. eigenvalues --  -19.22264 -19.21926 -19.20578 -19.19501 -19.18981
 Alpha  occ. eigenvalues --  -19.15725 -10.37064 -10.36989 -10.33419  -1.15892
 Alpha  occ. eigenvalues --   -1.14573  -1.11497  -1.07217  -1.05775  -1.03004
 Alpha  occ. eigenvalues --   -0.71387  -0.68210  -0.66745  -0.59190  -0.55233
 Alpha  occ. eigenvalues --   -0.53834  -0.52239  -0.50797  -0.48374  -0.47801
 Alpha  occ. eigenvalues --   -0.47448  -0.44336  -0.43704  -0.39836  -0.37726
 Alpha  occ. eigenvalues --   -0.36284  -0.35000  -0.33863  -0.32471  -0.32010
 Alpha  occ. eigenvalues --   -0.28943
 Alpha virt. eigenvalues --   -0.05556  -0.04722  -0.01511   0.09121   0.11088
 Alpha virt. eigenvalues --    0.12560   0.13090   0.16122   0.17654   0.23387
 Alpha virt. eigenvalues --    0.24519   0.26007   0.26252   0.30687   0.35095

 Mulliken atomic charges:
              1
     1  C    0.407163
     2  O   -0.545619
     3  O   -0.518253
     4  H    0.238940
     5  H    0.433845
     6  C    0.393984
     7  O   -0.468942
     8  O   -0.526916
     9  H    0.187735
    10  H    0.431773
    11  C    0.355674
    12  O   -0.426293
    13  O   -0.551138
    14  H    0.160814
    15  H    0.427232
 Sum of Mulliken atomic charges =   0.00000

 Dipole moment (field-independent basis, Debye):
    X=             -1.5861    Y=             -1.0275    Z=             -0.0022  Tot=              1.8899
 Quadrupole moment (field-independent basis, Debye-Ang):
   XX=            -47.2947   YY=            -61.5508   ZZ=            -50.4099
   XY=              1.8659   XZ=             -0.0123   YZ=             -0.0187

 Normal termination of Gaussian 09 at Sat May  9 09:51:53 2015.
