 Gaussian 09, Revision A.01,
 Gaussian 09:  EM64L-G09RevA.01  8-May-2009

 ----------------
 #opt b3lyp/6-31g
 ----------------

 -------------------
 Title Card Required
 -------------------
 Symbolic Z-matrix:
 Charge =  0 Multiplicity = 1

 SCF Done:  E(RB3LYP) =  -758.807758684     A.U. after   15 cycles
 SCF Done:  E(RB3LYP) =  -758.814751735     A.U. after   15 cycles
 SCF Done:  E(RB3LYP) =  -758.812469636     A.U. after   16 cycles
 SCF Done:  E(RB3LYP) =  -758.815291636     A.U. after   15 cycles
 SCF Done:  E(RB3LYP) =  -758.816034369     A.U. after   15 cycles
 SCF Done:  E(RB3LYP) =  -758.815817483     A.U. after   15 cycles
 SCF Done:  E(RB3LYP) =  -758.816477578     A.U. after   13 cycles
 SCF Done:  E(RB3LYP) =  -758.817371983     A.U. after   13 cycles
 SCF Done:  E(RB3LYP) =  -758.818553299     A.U. after   15 cycles
 SCF Done:  E(RB3LYP) =  -758.818871256     A.U. after   12 cycles
 SCF Done:  E(RB3LYP) =  -758.820086887     A.U. after   10 cycles
 SCF Done:  E(RB3LYP) =  -758.820094655     A.U. after   10 cycles
 SCF Done:  E(RB3LYP) =  -758.820102159     A.U. after   11 cycles
 SCF Done:  E(RB3LYP) =  -758.820105886     A.U. after    9 cycles
 SCF Done:  E(RB3LYP) =  -758.820108356     A.U. after    9 cycles
 SCF Done:  E(RB3LYP) =  -758.820109833     A.U. after    9 cycles
 SCF Done:  E(RB3LYP) =  -758.820110974     A.U. after    9 cycles
 SCF Done:  E(RB3LYP) =  -758.820111522     A.U. after    9 cycles
 SCF Done:  E(RB3LYP) =  -758.820111752     A.U. after    9 cycles
 SCF Done:  E(RB3LYP) =  -758.820111902     A.U. after    8 cycles
 Optimization completed.
    -- Stationary point found.

                         Standard orientation:
 ---------------------------------------------------------------------
 Center     Atomic      Atomic             Coordinates (Angstroms)
 Number     Number       Type             X           Y           Z
 ---------------------------------------------------------------------
      1          6           0       -0.867257   -1.848777    0.214007
      2          8           0       -0.420319   -0.702416   -0.070861
      3          8           0       -2.139998   -2.117642    0.419147
      4          1           0       -0.202312   -2.706342    0.306751
      5          1           0       -2.764020   -1.308445    0.315228
      6          6           0       -3.263258    1.126610   -0.315560
      7          8           0       -3.601122   -0.016279    0.055270
      8          8           0       -2.026652    1.594785   -0.452299
      9          1           0       -4.003962    1.883029   -0.573658
     10          1           0       -1.277568    0.974760   -0.217213
     11          6           0        2.746445   -1.733397   -0.221539
     12          8           0        2.122604   -2.781061   -0.044780
     13          8           0        2.176137   -0.500793   -0.299704
     14          1           0        3.830801   -1.673902   -0.334176
     15          1           0        1.153463   -0.510199   -0.209413
     16          6           0        1.703290    2.669357    0.340000
     17          8           0        0.616127    2.090951    0.449150
     18          8           0        2.866005    2.085168   -0.022271
     19          1           0        1.849185    3.735215    0.528129
     20          1           0        2.756837    1.101421   -0.186317
 ---------------------------------------------------------------------

 The electronic state is 1-A.
 Alpha  occ. eigenvalues --  -19.21430 -19.21346 -19.21105 -19.19581 -19.18762
 Alpha  occ. eigenvalues --  -19.18639 -19.17488 -19.15326 -10.36346 -10.36335
 Alpha  occ. eigenvalues --  -10.35226 -10.33129  -1.15020  -1.13914  -1.13031
 Alpha  occ. eigenvalues --   -1.11128  -1.06461  -1.05412  -1.04601  -1.02676
 Alpha  occ. eigenvalues --   -0.70540  -0.68524  -0.67867  -0.66238  -0.57994
 Alpha  occ. eigenvalues --   -0.55238  -0.54867  -0.53417  -0.51905  -0.50538
 Alpha  occ. eigenvalues --   -0.49219  -0.47729  -0.47329  -0.46760  -0.46115
 Alpha  occ. eigenvalues --   -0.44018  -0.42362  -0.42053  -0.38373  -0.36894
 Alpha  occ. eigenvalues --   -0.35307  -0.34422  -0.34020  -0.33379  -0.31876
 Alpha  occ. eigenvalues --   -0.31585  -0.30552  -0.28487
 Alpha virt. eigenvalues --   -0.04718  -0.03975  -0.03263  -0.01212   0.09520
 Alpha virt. eigenvalues --    0.10440   0.11224   0.13105   0.13478   0.14343
 Alpha virt. eigenvalues --    0.16438   0.19785   0.23469   0.24309   0.25375

 Mulliken atomic charges:
              1
     1  C    0.401407
     2  O   -0.529746
     3  O   -0.518936
     4  H    0.219395
     5  H    0.436575
     6  C    0.394443
     7  O   -0.472092
     8  O   -0.516260
     9  H    0.182901
    10  H    0.456824
    11  C    0.386305
    12  O   -0.402433
    13  O   -0.624840
    14  H    0.165679
    15  H    0.462950
    16  C    0.356773
    17  O   -0.433592
    18  O   -0.554331
    19  H    0.156924
    20  H    0.432053
 Sum of Mulliken atomic charges =   0.00000

 Dipole moment (field-independent basis, Debye):
    X=              0.2496    Y=              0.9720    Z=             -0.5260  Tot=              1.1331
 Quadrupole moment (field-independent basis, Debye-Ang):
   XX=            -65.9075   YY=            -74.8220   ZZ=            -67.6875
   XY=             -6.8658   XZ=              2.3248   YZ=              1.5011

 Normal termination of Gaussian 09 at Sun May 10 10:02:07 2015.
