 Gaussian 09, Revision A.01,
 Gaussian 09:  EM64L-G09RevA.01  8-May-2009

 ----------------
 #opt b3lyp/6-31g
 ----------------

 -------------------
 Title Card Required
 -------------------
 Symbolic Z-matrix:
 Charge =  0 Multiplicity = 1

 SCF Done:  E(RB3LYP) =  -921.178537286     A.U. after   16 cycles
 SCF Done:  E(RB3LYP) =  -921.180576798     A.U. after   13 cycles
 SCF Done:  E(RB3LYP) =  -921.183010878     A.U. after   13 cycles
 SCF Done:  E(RB3LYP) =  -921.186130166     A.U. after   16 cycles
 SCF Done:  E(RB3LYP) =  -921.187755648     A.U. after   14 cycles
 SCF Done:  E(RB3LYP) =  -921.189098734     A.U. after   14 cycles
 SCF Done:  E(RB3LYP) =  -921.189760396     A.U. after   14 cycles
 SCF Done:  E(RB3LYP) =  -921.190123190     A.U. after   13 cycles
 SCF Done:  E(RB3LYP) =  -921.190233760     A.U. after   13 cycles
 SCF Done:  E(RB3LYP) =  -921.190282399     A.U. after   11 cycles
 SCF Done:  E(RB3LYP) =  -921.190693073     A.U. after    9 cycles
 SCF Done:  E(RB3LYP) =  -921.190693747     A.U. after    9 cycles
 SCF Done:  E(RB3LYP) =  -921.190694537     A.U. after    9 cycles
 SCF Done:  E(RB3LYP) =  -921.190695658     A.U. after    9 cycles
 SCF Done:  E(RB3LYP) =  -921.190697253     A.U. after    8 cycles
 SCF Done:  E(RB3LYP) =  -921.190699787     A.U. after   16 cycles
 SCF Done:  E(RB3LYP) =  -921.190702345     A.U. after    9 cycles
 SCF Done:  E(RB3LYP) =  -921.190702878     A.U. after    8 cycles
 SCF Done:  E(RB3LYP) =  -921.190703053     A.U. after    8 cycles
 SCF Done:  E(RB3LYP) =  -921.190703114     A.U. after   16 cycles
 Optimization completed.
    -- Stationary point found.

                         Standard orientation:
 ---------------------------------------------------------------------
 Center     Atomic      Atomic             Coordinates (Angstroms)
 Number     Number       Type             X           Y           Z
 ---------------------------------------------------------------------
      1          6           0       -2.691914    1.200848   -0.000175
      2          7           0       -4.045884    1.386069    0.000117
      3          6           0       -4.864976    0.311162    0.000424
      4          6           0       -2.218155   -0.134015   -0.000200
      5          6           0       -3.177817   -1.157972    0.000192
      6          7           0       -4.516603   -0.995919    0.000539
      7          1           0       -5.926636    0.524536    0.000682
      8          7           0       -1.895708    2.287643   -0.000413
      9          1           0       -2.349105    3.188206   -0.000383
     10          1           0       -0.876507    2.244077   -0.000248
     11          7           0       -0.936340   -0.692507   -0.000640
     12          6           0       -1.109506   -2.009319   -0.000480
     13          7           0       -2.451684   -2.341790    0.000026
     14          1           0       -0.301313   -2.723297   -0.000692
     15          1           0       -2.850425   -3.266758    0.000119
     16          6           0        5.065168   -1.512759    0.000220
     17          6           0        4.010674   -0.443823    0.000137
     18          1           0        4.962819   -2.161567   -0.877328
     19          1           0        4.963142   -2.161153    0.878119
     20          1           0        6.071225   -1.082236   -0.000050
     21          6           0        2.603977   -0.857721    0.000008
     22          6           0        4.285305    0.885517    0.000170
     23          7           0        3.282882    1.845674    0.000124
     24          1           0        5.298197    1.269045    0.000248
     25          7           0        1.664788    0.180064    0.000057
     26          6           0        1.929794    1.526300    0.000031
     27          1           0        0.646190   -0.103582   -0.000255
     28          1           0        3.503830    2.830327    0.000114
     29          8           0        1.043888    2.417798    0.000016
     30          8           0        2.225253   -2.054241   -0.000135
 ---------------------------------------------------------------------

 The electronic state is 1-A.
 Alpha  occ. eigenvalues --  -19.13577 -19.12659 -14.40819 -14.40450 -14.37098
 Alpha  occ. eigenvalues --  -14.35185 -14.33724 -14.32931 -14.32218 -10.34945
 Alpha  occ. eigenvalues --  -10.30833 -10.27797 -10.27149 -10.26722 -10.26598
 Alpha  occ. eigenvalues --  -10.24750 -10.22270 -10.21832 -10.19097  -1.08242
 Alpha  occ. eigenvalues --   -1.04986  -1.04513  -0.98602  -0.98472  -0.93747
 Alpha  occ. eigenvalues --   -0.92724  -0.89784  -0.86038  -0.82527  -0.77577
 Alpha  occ. eigenvalues --   -0.72328  -0.68141  -0.67165  -0.66933  -0.65519
 Alpha  occ. eigenvalues --   -0.63748  -0.58275  -0.57555  -0.57163  -0.55206
 Alpha  occ. eigenvalues --   -0.52249  -0.51785  -0.50274  -0.48373  -0.47787
 Alpha  occ. eigenvalues --   -0.46958  -0.46466  -0.45232  -0.43837  -0.42948
 Alpha  occ. eigenvalues --   -0.42595  -0.42007  -0.40834  -0.40099  -0.39384
 Alpha  occ. eigenvalues --   -0.39167  -0.35942  -0.35543  -0.31975  -0.29789
 Alpha  occ. eigenvalues --   -0.29325  -0.27861  -0.27569  -0.26963  -0.26230
 Alpha  occ. eigenvalues --   -0.24435  -0.24011  -0.21622
 Alpha virt. eigenvalues --   -0.04263  -0.02439  -0.00094   0.00346   0.03203
 Alpha virt. eigenvalues --    0.05696   0.07658   0.10024   0.10627   0.11489
 Alpha virt. eigenvalues --    0.12785   0.14377   0.15559   0.16026   0.16130

 Mulliken atomic charges:
              1
     1  C    0.432000
     2  N   -0.423359
     3  C    0.110504
     4  C    0.192546
     5  C    0.373157
     6  N   -0.355346
     7  H    0.153750
     8  N   -0.773845
     9  H    0.325980
    10  H    0.390538
    11  N   -0.560766
    12  C    0.313036
    13  N   -0.712446
    14  H    0.221837
    15  H    0.342737
    16  C   -0.456313
    17  C    0.051801
    18  H    0.171098
    19  H    0.171081
    20  H    0.132843
    21  C    0.494795
    22  C    0.114941
    23  N   -0.686594
    24  H    0.172152
    25  N   -0.739301
    26  C    0.715989
    27  H    0.430386
    28  H    0.347780
    29  O   -0.483374
    30  O   -0.467605
 Sum of Mulliken atomic charges =   0.00000

 Dipole moment (field-independent basis, Debye):
    X=              5.7556    Y=              0.1249    Z=              0.0001  Tot=              5.7569
 Quadrupole moment (field-independent basis, Debye-Ang):
   XX=            -98.1210   YY=            -99.6559   ZZ=           -111.0182
   XY=             16.3043   XZ=              0.0033   YZ=              0.0015

 Normal termination of Gaussian 09 at Thu May 21 12:49:28 2015.
