 Gaussian 09, Revision A.01,
 Gaussian 09:  EM64L-G09RevA.01  8-May-2009

 ----------------
 #opt b3lyp/6-31g
 ----------------

 -------------------
 Title Card Required
 -------------------
 Symbolic Z-matrix:
 Charge =  0 Multiplicity = 1

 SCF Done:  E(RB3LYP) =  -948.508818743     A.U. after   15 cycles
 SCF Done:  E(RB3LYP) =  -948.514484450     A.U. after   16 cycles
 SCF Done:  E(RB3LYP) =  -948.495984648     A.U. after   16 cycles
 SCF Done:  E(RB3LYP) =  -948.516674716     A.U. after   16 cycles
 SCF Done:  E(RB3LYP) =  -948.518032658     A.U. after   16 cycles
 SCF Done:  E(RB3LYP) =  -948.520258657     A.U. after   15 cycles
 SCF Done:  E(RB3LYP) =  -948.521638822     A.U. after   16 cycles
 SCF Done:  E(RB3LYP) =  -948.521689789     A.U. after   16 cycles
 SCF Done:  E(RB3LYP) =  -948.522805068     A.U. after   16 cycles
 SCF Done:  E(RB3LYP) =  -948.523524970     A.U. after   15 cycles
 SCF Done:  E(RB3LYP) =  -948.529502875     A.U. after   10 cycles
 SCF Done:  E(RB3LYP) =  -948.529502370     A.U. after    9 cycles
 SCF Done:  E(RB3LYP) =  -948.529502335     A.U. after    9 cycles
 SCF Done:  E(RB3LYP) =  -948.529503187     A.U. after    9 cycles
 SCF Done:  E(RB3LYP) =  -948.529504129     A.U. after    9 cycles
 SCF Done:  E(RB3LYP) =  -948.529504713     A.U. after    9 cycles
 SCF Done:  E(RB3LYP) =  -948.529504970     A.U. after    8 cycles
 SCF Done:  E(RB3LYP) =  -948.529505350     A.U. after    8 cycles
 SCF Done:  E(RB3LYP) =  -948.529505940     A.U. after    9 cycles
 SCF Done:  E(RB3LYP) =  -948.529506266     A.U. after    8 cycles
 Optimization completed.
    -- Stationary point found.

                         Standard orientation:
 ---------------------------------------------------------------------
 Center     Atomic      Atomic             Coordinates (Angstroms)
 Number     Number       Type             X           Y           Z
 ---------------------------------------------------------------------
      1          6           0       -1.749552   -1.301103   -0.313984
      2          8           0       -1.386741   -0.161299   -0.738441
      3          8           0       -2.879008   -1.527690    0.318352
      4          1           0       -1.131898   -2.177892   -0.477921
      5          1           0       -3.464961   -0.704177    0.494507
      6          6           0       -3.894052    1.787320    0.310894
      7          8           0       -4.260614    0.655188    0.692933
      8          8           0       -2.768604    2.059169   -0.345533
      9          1           0       -4.493926    2.677965    0.493173
     10          1           0       -2.188437    1.242418   -0.529039
     11          6           0        1.484775   -1.397186   -1.956982
     12          8           0        0.773750   -2.397101   -1.894031
     13          8           0        1.091365   -0.144371   -1.583047
     14          1           0        2.513297   -1.389303   -2.325102
     15          1           0        0.137457   -0.109529   -1.214274
     16          6           0        3.349605    2.039820   -0.092442
     17          8           0        3.243091    1.311847    0.906624
     18          8           0        2.728135    1.884071   -1.263405
     19          1           0        3.997363    2.918090   -0.105945
     20          1           0        2.096660    1.093847   -1.342886
     21          6           0        1.274811   -1.296270    2.245961
     22          8           0        0.545035   -1.110450    1.262034
     23          8           0        2.414703   -0.641706    2.516065
     24          1           0        1.064927   -2.034980    3.023142
     25          1           0        2.667096    0.066804    1.851267
 ---------------------------------------------------------------------

 The electronic state is 1-A.
 Alpha  occ. eigenvalues --  -19.21819 -19.21577 -19.21361 -19.20147 -19.20004
 Alpha  occ. eigenvalues --  -19.19182 -19.18364 -19.17448 -19.17322 -19.15245
 Alpha  occ. eigenvalues --  -10.36837 -10.36675 -10.35234 -10.35218 -10.33099
 Alpha  occ. eigenvalues --   -1.15573  -1.14252  -1.13253  -1.12566  -1.10930
 Alpha  occ. eigenvalues --   -1.06909  -1.05531  -1.04967  -1.04267  -1.02537
 Alpha  occ. eigenvalues --   -0.71086  -0.68792  -0.68335  -0.67756  -0.66362
 Alpha  occ. eigenvalues --   -0.58908  -0.55771  -0.55371  -0.54565  -0.53159
 Alpha  occ. eigenvalues --   -0.52608  -0.50832  -0.49976  -0.49460  -0.48534
 Alpha  occ. eigenvalues --   -0.47369  -0.46255  -0.45968  -0.45935  -0.43962
 Alpha  occ. eigenvalues --   -0.43445  -0.42736  -0.39121  -0.38022  -0.36505
 Alpha  occ. eigenvalues --   -0.35771  -0.34637  -0.34126  -0.33917  -0.33598
 Alpha  occ. eigenvalues --   -0.32196  -0.31562  -0.30863  -0.30314  -0.28546
 Alpha virt. eigenvalues --   -0.04836  -0.04226  -0.03183  -0.02960  -0.01139
 Alpha virt. eigenvalues --    0.09209   0.10355   0.10452   0.12269   0.12736
 Alpha virt. eigenvalues --    0.13393   0.14107   0.16353   0.16781   0.20666

 Mulliken atomic charges:
              1
     1  C    0.464326
     2  O   -0.574175
     3  O   -0.522807
     4  H    0.232096
     5  H    0.433544
     6  C    0.394177
     7  O   -0.468473
     8  O   -0.529299
     9  H    0.185878
    10  H    0.433299
    11  C    0.403193
    12  O   -0.394105
    13  O   -0.638127
    14  H    0.163616
    15  H    0.474434
    16  C    0.384225
    17  O   -0.455785
    18  O   -0.544756
    19  H    0.167717
    20  H    0.447052
    21  C    0.361447
    22  O   -0.452606
    23  O   -0.543968
    24  H    0.153079
    25  H    0.426017
 Sum of Mulliken atomic charges =   0.00000

 Dipole moment (field-independent basis, Debye):
    X=             -0.2917    Y=              1.8677    Z=             -0.9372  Tot=              2.1099
 Quadrupole moment (field-independent basis, Debye-Ang):
   XX=            -81.8469   YY=            -87.5690   ZZ=            -89.6793
   XY=             -5.4049   XZ=             -4.7904   YZ=              0.7862

 Normal termination of Gaussian 09 at Mon May 11 11:08:56 2015.
